
     Program PWSCF v.5.1 starts on 28Jun2014 at 22:55:52 

     This program is part of the open-source Quantum ESPRESSO suite
     for quantum simulation of materials; please cite
         "P. Giannozzi et al., J. Phys.:Condens. Matter 21 395502 (2009);
          URL http://www.quantum-espresso.org", 
     in publications or presentations arising from this work. More details at
     http://www.quantum-espresso.org/quote

     Parallel version (MPI), running on    12 processors
     R & G space division:  proc/nbgrp/npool/nimage =      12
     Waiting for input...
     Reading input from standard input
     Message from routine read_cards :
     DEPRECATED: no units specified in CELL_PARAMETERS card

     Current dimensions of program PWSCF are:
     Max number of different atomic species (ntypx) = 10
     Max number of k-points (npk) =  40000
     Max angular momentum in pseudopotentials (lmaxx) =  3

     gamma-point specific algorithms are used

     Subspace diagonalization in iterative solution of the eigenvalue problem:
     a serial algorithm will be used


     Parallelization info
     --------------------
     sticks:   dense  smooth     PW     G-vecs:    dense   smooth      PW
     Min         459     459    113                25796    25796    3217
     Max         462     462    116                25808    25808    3228
     Sum        5521    5521   1369               309619   309619   38641
     Tot        2761    2761    685



     bravais-lattice index     =            0
     lattice parameter (alat)  =      24.0800  a.u.
     unit-cell volume          =   13962.7013 (a.u.)^3
     number of atoms/cell      =            6
     number of atomic types    =            2
     number of electrons       =        12.00
     number of Kohn-Sham states=           20
     kinetic-energy cutoff     =      30.0000  Ry
     charge density cutoff     =     120.0000  Ry
     convergence threshold     =      1.0E-05
     mixing beta               =       0.4500
     number of iterations used =            8  plain     mixing
     Exchange-correlation      = REVPBE ( 1  4  4  4 0)
     nstep                     =           50


     celldm(1)=  24.080000  celldm(2)=   0.000000  celldm(3)=   0.000000
     celldm(4)=   0.000000  celldm(5)=   0.000000  celldm(6)=   0.000000

     crystal axes: (cart. coord. in units of alat)
               a(1) = (   1.000000   0.000000   0.000000 )  
               a(2) = (   0.000000   1.000000   0.000000 )  
               a(3) = (   0.000000   0.000000   1.000000 )  

     reciprocal axes: (cart. coord. in units 2 pi/alat)
               b(1) = (  1.000000  0.000000  0.000000 )  
               b(2) = (  0.000000  1.000000  0.000000 )  
               b(3) = (  0.000000  0.000000  1.000000 )  


     PseudoPot. # 1 for  C read from file:
     /software/group/oprezhdo_group/QE_PP/revpbe/PSEUDOPOTENTIALS_NC/C.revpbe-nc.UPF
     MD5 check sum: 050190877f30666af16a1855e68c224b
     Pseudo is Norm-conserving, Zval =  4.0
     Generated using "atomic" code by A. Dal Corso  v.5.0.2 svn rev. 9605
     Using radial grid of 1073 points,  1 beta functions with: 
                l(1) =   1

     PseudoPot. # 2 for  H read from file:
     /software/group/oprezhdo_group/QE_PP/revpbe/PSEUDOPOTENTIALS_NC/H.revpbe-n-nc.UPF
     MD5 check sum: cc6e656772bda2e1ea0b5e6469fff948
     Pseudo is Norm-conserving, Zval =  1.0
     Generated using "atomic" code by A. Dal Corso  v.5.0.2 svn rev. 9605
     Using radial grid of  929 points,  0 beta functions with: 

     atomic species   valence    mass     pseudopotential
        C              4.00    12.01000      C( 1.00)
        H              1.00     1.00800      H( 1.00)

     No symmetry found



   Cartesian axes

     site n.     atom                  positions (alat units)
         1           C   tau(   1) = (  -0.2024635   0.0053751   0.0000000  )
         2           H   tau(   2) = (  -0.1606224  -0.0674284   0.0000000  )
         3           H   tau(   3) = (  -0.2864339   0.0053751   0.0000000  )
         4           C   tau(   4) = (  -0.1494700   0.0975838   0.0000000  )
         5           H   tau(   5) = (  -0.1913111   0.1703873   0.0000000  )
         6           H   tau(   6) = (  -0.0654996   0.0975838   0.0000000  )

     number of k points=     1  gaussian smearing, width (Ry)=  0.0050
                       cart. coord. in units 2pi/alat
        k(    1) = (   0.0000000   0.0000000   0.0000000), wk =   2.0000000

     Dense  grid:   154810 G-vectors     FFT dimensions: (  90,  90,  90)

     Largest allocated arrays     est. size (Mb)     dimensions
        Kohn-Sham Wavefunctions         0.49 Mb     (    1611,   20)
        NL pseudopotentials             0.15 Mb     (    1611,    6)
        Each V/rho on FFT grid          0.99 Mb     (   64800)
        Each G-vector array             0.10 Mb     (   12902)
        G-vector shells                 0.01 Mb     (    1366)
     Largest temporary arrays     est. size (Mb)     dimensions
        Auxiliary wavefunctions         0.98 Mb     (    1611,   80)
        Each subspace H/S matrix        0.05 Mb     (      80,   80)
        Each <psi_i|beta_j> matrix      0.00 Mb     (       6,   20)
        Arrays for rho mixing           7.91 Mb     (   64800,    8)

     Initial potential from superposition of free atoms
     Check: negative starting charge=   -0.039965

     starting charge   11.99987, renormalised to   12.00000

     negative rho (up, down):  3.997E-02 0.000E+00
     Starting wfc are   12 randomized atomic wfcs +    8 random wfc

     total cpu time spent up to now is        1.7 secs

     per-process dynamical memory:    16.1 Mb

     Self-consistent Calculation

     iteration #  1     ecut=    30.00 Ry     beta=0.45
     Davidson diagonalization with overlap
     ethr =  1.00E-02,  avg # of iterations =  8.0

     negative rho (up, down):  2.181E-02 0.000E+00

     total cpu time spent up to now is        2.8 secs

     total energy              =     -27.09102478 Ry
     Harris-Foulkes estimate   =     -27.38870325 Ry
     estimated scf accuracy    <       0.62492891 Ry

     iteration #  2     ecut=    30.00 Ry     beta=0.45
     Davidson diagonalization with overlap
     ethr =  5.21E-03,  avg # of iterations =  2.0

     negative rho (up, down):  1.047E-02 0.000E+00

     total cpu time spent up to now is        3.4 secs

     total energy              =     -27.15848077 Ry
     Harris-Foulkes estimate   =     -27.17361538 Ry
     estimated scf accuracy    <       0.04996124 Ry

     iteration #  3     ecut=    30.00 Ry     beta=0.45
     Davidson diagonalization with overlap
     ethr =  4.16E-04,  avg # of iterations =  4.0

     negative rho (up, down):  1.121E-03 0.000E+00

     total cpu time spent up to now is        4.0 secs

     total energy              =     -27.15648166 Ry
     Harris-Foulkes estimate   =     -27.16000951 Ry
     estimated scf accuracy    <       0.00945769 Ry

     iteration #  4     ecut=    30.00 Ry     beta=0.45
     Davidson diagonalization with overlap
     ethr =  7.88E-05,  avg # of iterations = 11.0

     negative rho (up, down):  5.617E-04 0.000E+00

     total cpu time spent up to now is        4.8 secs

     total energy              =     -27.15726627 Ry
     Harris-Foulkes estimate   =     -27.15731707 Ry
     estimated scf accuracy    <       0.00013170 Ry

     iteration #  5     ecut=    30.00 Ry     beta=0.45
     Davidson diagonalization with overlap
     ethr =  1.10E-06,  avg # of iterations = 15.0

     negative rho (up, down):  4.925E-06 0.000E+00

     total cpu time spent up to now is        5.7 secs

     total energy              =     -27.15730431 Ry
     Harris-Foulkes estimate   =     -27.15730982 Ry
     estimated scf accuracy    <       0.00002448 Ry

     iteration #  6     ecut=    30.00 Ry     beta=0.45
     Davidson diagonalization with overlap
     ethr =  2.04E-07,  avg # of iterations =  4.0

     total cpu time spent up to now is        6.3 secs

     End of self-consistent calculation

          k = 0.0000 0.0000 0.0000 ( 19321 PWs)   bands (ev):

   -18.9290 -14.3247 -11.4054  -9.7199  -8.4785  -6.4017  -0.8652  -0.3821
     0.3581   0.4313   0.5078   0.6623   0.7493   0.7978   1.3302   1.3490
     1.3497   1.5105   1.5604   1.6371

     the Fermi energy is    -3.4364 ev

!    total energy              =     -27.15730639 Ry
     Harris-Foulkes estimate   =     -27.15730752 Ry
     estimated scf accuracy    <       0.00000358 Ry

     convergence has been achieved in   6 iterations

     Forces acting on atoms (Ry/au):

     atom    1 type  1   force =     0.03685699    0.06641378   -0.00001731
     atom    2 type  2   force =     0.02597442   -0.05934301    0.00000168
     atom    3 type  2   force =    -0.06488519   -0.00774676    0.00000129
     atom    4 type  1   force =    -0.03727997   -0.06679137    0.00000790
     atom    5 type  2   force =    -0.02580368    0.05957709    0.00000143
     atom    6 type  2   force =     0.06513742    0.00789027    0.00000501

     Total force =     0.169136     Total SCF correction =     0.000595

     Molecular Dynamics Calculation

     Starting temperature  =   300.00 K

     temperature is controlled by Andersen thermostat
     Collision frequency = 1.0000/timestep
     mass C                =    12.01
     mass H                =     1.01
     Time step             =    20.67 a.u.,  1.0000 femto-seconds

     Entering Dynamics:    iteration =     1
                           time      =   0.0010 pico-seconds


     Andersen thermostat:    6 collisions

ATOMIC_POSITIONS (alat)
C       -0.202313750   0.005666132   0.000120721
H       -0.163329182  -0.067440329  -0.001663007
H       -0.286012322   0.003781544   0.000057684
C       -0.149565135   0.097200401   0.000212289
H       -0.191003454   0.173290712   0.000099175
H       -0.064172773   0.097386398  -0.002461561


     kinetic energy (Ekin) =     0.01900877 Ry
     temperature           =   400.16592549 K 
     Ekin + Etot (const)   =   -27.13829762 Ry

     Linear momentum :    0.0000000000   -0.0000000000    0.0000000000

     Writing output data file x.save
     Check: negative starting charge=   -0.039965
     NEW-OLD atomic charge density approx. for the potential
     Check: negative starting charge=   -0.040273

     negative rho (up, down):  1.407E-02 0.000E+00

     total cpu time spent up to now is        8.1 secs

     per-process dynamical memory:    18.3 Mb

     Self-consistent Calculation

     iteration #  1     ecut=    30.00 Ry     beta=0.45
     Davidson diagonalization with overlap
     ethr =  1.00E-06,  avg # of iterations = 12.0

     negative rho (up, down):  7.306E-03 0.000E+00

     total cpu time spent up to now is        9.2 secs

     total energy              =     -27.15886140 Ry
     Harris-Foulkes estimate   =     -27.15966515 Ry
     estimated scf accuracy    <       0.00203018 Ry

     iteration #  2     ecut=    30.00 Ry     beta=0.45
     Davidson diagonalization with overlap
     ethr =  1.69E-05,  avg # of iterations =  2.0

     negative rho (up, down):  4.855E-03 0.000E+00

     total cpu time spent up to now is        9.7 secs

     total energy              =     -27.15927726 Ry
     Harris-Foulkes estimate   =     -27.15948304 Ry
     estimated scf accuracy    <       0.00064970 Ry

     iteration #  3     ecut=    30.00 Ry     beta=0.45
     Davidson diagonalization with overlap
     ethr =  5.41E-06,  avg # of iterations =  4.0

     negative rho (up, down):  7.944E-04 0.000E+00

     total cpu time spent up to now is       10.4 secs

     total energy              =     -27.15932964 Ry
     Harris-Foulkes estimate   =     -27.15937376 Ry
     estimated scf accuracy    <       0.00006028 Ry

     iteration #  4     ecut=    30.00 Ry     beta=0.45
     Davidson diagonalization with overlap
     ethr =  5.02E-07,  avg # of iterations =  7.0

     total cpu time spent up to now is       11.1 secs

     End of self-consistent calculation

          k = 0.0000 0.0000 0.0000 ( 19321 PWs)   bands (ev):

   -18.9492 -14.3200 -11.3001  -9.8627  -8.3613  -6.4451  -0.8412  -0.4227
     0.3131   0.3971   0.4393   0.6127   0.6784   0.7268   1.2431   1.2669
     1.3136   1.4685   1.4918   1.5636

     the Fermi energy is    -3.4966 ev

!    total energy              =     -27.15933327 Ry
     Harris-Foulkes estimate   =     -27.15933462 Ry
     estimated scf accuracy    <       0.00000309 Ry

     convergence has been achieved in   4 iterations

     Forces acting on atoms (Ry/au):

     atom    1 type  1   force =     0.01524581    0.06799225   -0.00047541
     atom    2 type  2   force =     0.04430807   -0.07870114   -0.00084436
     atom    3 type  2   force =    -0.07175580   -0.00135615    0.00181916
     atom    4 type  1   force =    -0.02068500   -0.00561385   -0.00306500
     atom    5 type  2   force =    -0.00241613    0.01105491    0.00140042
     atom    6 type  2   force =     0.03530303    0.00662397    0.00116518

     Total force =     0.141625     Total SCF correction =     0.001774

     Entering Dynamics:    iteration =     2
                           time      =   0.0020 pico-seconds


     Andersen thermostat:    6 collisions

ATOMIC_POSITIONS (alat)
C       -0.202005252   0.005941010  -0.000094090
H       -0.162116989  -0.070229654  -0.001468338
H       -0.289394919   0.003737906  -0.000634717
C       -0.149678672   0.097403685   0.000346369
H       -0.190667256   0.171603604   0.002032601
H       -0.064661444   0.096209320  -0.002935361


     kinetic energy (Ekin) =     0.01623188 Ry
     temperature           =   341.70771422 K 
     Ekin + Etot (const)   =   -27.14310139 Ry
     Message from routine dynamics:
     Total linear momentum <> 0

     Linear momentum :    0.0049127975   -0.1003358972    0.2131694920

     Writing output data file x.save
     Check: negative starting charge=   -0.040273
     NEW-OLD atomic charge density approx. for the potential
     Check: negative starting charge=   -0.040750

     negative rho (up, down):  1.419E-02 0.000E+00

     total cpu time spent up to now is       12.9 secs

     per-process dynamical memory:    19.6 Mb

     Self-consistent Calculation

     iteration #  1     ecut=    30.00 Ry     beta=0.45
     Davidson diagonalization with overlap
     ethr =  1.00E-06,  avg # of iterations = 13.0

     negative rho (up, down):  7.381E-03 0.000E+00

     total cpu time spent up to now is       14.2 secs

     total energy              =     -27.16307679 Ry
     Harris-Foulkes estimate   =     -27.16552971 Ry
     estimated scf accuracy    <       0.00505616 Ry

     iteration #  2     ecut=    30.00 Ry     beta=0.45
     Davidson diagonalization with overlap
     ethr =  4.21E-05,  avg # of iterations =  2.0

     negative rho (up, down):  4.977E-03 0.000E+00

     total cpu time spent up to now is       14.7 secs

     total energy              =     -27.16420045 Ry
     Harris-Foulkes estimate   =     -27.16479916 Ry
     estimated scf accuracy    <       0.00160776 Ry

     iteration #  3     ecut=    30.00 Ry     beta=0.45
     Davidson diagonalization with overlap
     ethr =  1.34E-05,  avg # of iterations =  3.0

     negative rho (up, down):  1.235E-03 0.000E+00

     total cpu time spent up to now is       15.2 secs

     total energy              =     -27.16439561 Ry
     Harris-Foulkes estimate   =     -27.16444958 Ry
     estimated scf accuracy    <       0.00008663 Ry

     iteration #  4     ecut=    30.00 Ry     beta=0.45
     Davidson diagonalization with overlap
     ethr =  7.22E-07,  avg # of iterations = 14.0

     total cpu time spent up to now is       16.1 secs

     End of self-consistent calculation

          k = 0.0000 0.0000 0.0000 ( 19321 PWs)   bands (ev):

   -18.9337 -14.1930 -11.2583  -9.8296  -8.2908  -6.4592  -0.8203  -0.4427
     0.2927   0.3687   0.4135   0.5947   0.6510   0.7042   1.2179   1.2360
     1.2862   1.4483   1.4731   1.5362

     the Fermi energy is    -3.5133 ev

!    total energy              =     -27.16440276 Ry
     Harris-Foulkes estimate   =     -27.16440558 Ry
     estimated scf accuracy    <       0.00000627 Ry

     convergence has been achieved in   4 iterations

     Forces acting on atoms (Ry/au):

     atom    1 type  1   force =    -0.03144135    0.00226288   -0.00173543
     atom    2 type  2   force =     0.01269125   -0.02012844   -0.00123353
     atom    3 type  2   force =     0.00041284   -0.00082380    0.00306049
     atom    4 type  1   force =    -0.00633330   -0.03386426   -0.00203599
     atom    5 type  2   force =    -0.01754211    0.04284620    0.00007119
     atom    6 type  2   force =     0.04221267    0.00970742    0.00187327

     Total force =     0.082395     Total SCF correction =     0.001664

     Entering Dynamics:    iteration =     3
                           time      =   0.0030 pico-seconds


     Andersen thermostat:    6 collisions

ATOMIC_POSITIONS (alat)
C       -0.201569458   0.006286559  -0.000225866
H       -0.160922553  -0.069584467  -0.002493369
H       -0.290044756   0.003439484  -0.001310908
C       -0.150016325   0.097277353   0.000623765
H       -0.191125192   0.169853184   0.002346513
H       -0.065917430   0.095001083  -0.003283075


     kinetic energy (Ekin) =     0.01494179 Ry
     temperature           =   314.54932466 K 
     Ekin + Etot (const)   =   -27.14946096 Ry
     Message from routine dynamics:
     Total linear momentum <> 0

     Linear momentum :    0.2357623486    0.1482925878   -0.3851613506

     Writing output data file x.save
     Check: negative starting charge=   -0.040750
     NEW-OLD atomic charge density approx. for the potential
     Check: negative starting charge=   -0.040620

     negative rho (up, down):  8.196E-03 0.000E+00

     total cpu time spent up to now is       17.8 secs

     per-process dynamical memory:    19.6 Mb

     Self-consistent Calculation

     iteration #  1     ecut=    30.00 Ry     beta=0.45
     Davidson diagonalization with overlap
     ethr =  1.00E-06,  avg # of iterations = 13.0

     negative rho (up, down):  4.222E-03 0.000E+00

     total cpu time spent up to now is       18.9 secs

     total energy              =     -27.15965078 Ry
     Harris-Foulkes estimate   =     -27.16003432 Ry
     estimated scf accuracy    <       0.00085994 Ry

     iteration #  2     ecut=    30.00 Ry     beta=0.45
     Davidson diagonalization with overlap
     ethr =  7.17E-06,  avg # of iterations =  3.0

     negative rho (up, down):  2.564E-03 0.000E+00

     total cpu time spent up to now is       19.4 secs

     total energy              =     -27.15978705 Ry
     Harris-Foulkes estimate   =     -27.15985813 Ry
     estimated scf accuracy    <       0.00016114 Ry

     iteration #  3     ecut=    30.00 Ry     beta=0.45
     Davidson diagonalization with overlap
     ethr =  1.34E-06,  avg # of iterations =  4.0

     negative rho (up, down):  8.102E-04 0.000E+00

     total cpu time spent up to now is       20.1 secs

     total energy              =     -27.15980027 Ry
     Harris-Foulkes estimate   =     -27.15981344 Ry
     estimated scf accuracy    <       0.00002194 Ry

     iteration #  4     ecut=    30.00 Ry     beta=0.45
     Davidson diagonalization with overlap
     ethr =  1.83E-07,  avg # of iterations =  4.0

     total cpu time spent up to now is       20.7 secs

     End of self-consistent calculation

          k = 0.0000 0.0000 0.0000 ( 19321 PWs)   bands (ev):

   -19.0080 -14.1606 -11.3405  -9.8186  -8.2750  -6.4929  -0.7623  -0.4262
     0.3098   0.3830   0.4315   0.6118   0.6775   0.7265   1.2438   1.2551
     1.2999   1.4685   1.4897   1.5593

     the Fermi energy is    -3.5145 ev

!    total energy              =     -27.15980117 Ry
     Harris-Foulkes estimate   =     -27.15980167 Ry
     estimated scf accuracy    <       0.00000233 Ry

     convergence has been achieved in   4 iterations

     Forces acting on atoms (Ry/au):

     atom    1 type  1   force =    -0.06052951   -0.02310670   -0.00358548
     atom    2 type  2   force =     0.00988612   -0.01918913   -0.00087929
     atom    3 type  2   force =     0.01873116   -0.00109590    0.00411628
     atom    4 type  1   force =     0.00057317   -0.03938082   -0.00243912
     atom    5 type  2   force =    -0.02950471    0.06978448    0.00110149
     atom    6 type  2   force =     0.06084378    0.01298807    0.00168612

     Total force =     0.127352     Total SCF correction =     0.000320

     Entering Dynamics:    iteration =     4
                           time      =   0.0040 pico-seconds


     Andersen thermostat:    6 collisions

ATOMIC_POSITIONS (alat)
C       -0.201658887   0.006161413   0.000024564
H       -0.161828832  -0.071761794  -0.001807626
H       -0.290040827   0.004499155  -0.001466786
C       -0.149963165   0.097445086   0.000478141
H       -0.192855549   0.170604531   0.001611511
H       -0.062852598   0.094859969  -0.004326671


     kinetic energy (Ekin) =     0.01340034 Ry
     temperature           =   282.09914918 K 
     Ekin + Etot (const)   =   -27.14640083 Ry
     Message from routine dynamics:
     Total linear momentum <> 0

     Linear momentum :    0.1256930495    0.2432393821    0.3152536205

     Writing output data file x.save
     Check: negative starting charge=   -0.040620
     NEW-OLD atomic charge density approx. for the potential
     Check: negative starting charge=   -0.040961

     negative rho (up, down):  1.156E-02 0.000E+00

     total cpu time spent up to now is       22.4 secs

     per-process dynamical memory:    19.6 Mb

     Self-consistent Calculation

     iteration #  1     ecut=    30.00 Ry     beta=0.45
     Davidson diagonalization with overlap
     ethr =  1.00E-06,  avg # of iterations = 13.0

     negative rho (up, down):  6.002E-03 0.000E+00

     total cpu time spent up to now is       23.5 secs

     total energy              =     -27.16370845 Ry
     Harris-Foulkes estimate   =     -27.16448017 Ry
     estimated scf accuracy    <       0.00189846 Ry

     iteration #  2     ecut=    30.00 Ry     beta=0.45
     Davidson diagonalization with overlap
     ethr =  1.58E-05,  avg # of iterations =  3.0

     negative rho (up, down):  3.510E-03 0.000E+00

     total cpu time spent up to now is       24.0 secs

     total energy              =     -27.16399927 Ry
     Harris-Foulkes estimate   =     -27.16410697 Ry
     estimated scf accuracy    <       0.00028053 Ry

     iteration #  3     ecut=    30.00 Ry     beta=0.45
     Davidson diagonalization with overlap
     ethr =  2.34E-06,  avg # of iterations =  9.0

     negative rho (up, down):  1.377E-03 0.000E+00

     total cpu time spent up to now is       24.8 secs

     total energy              =     -27.16401759 Ry
     Harris-Foulkes estimate   =     -27.16404876 Ry
     estimated scf accuracy    <       0.00004870 Ry

     iteration #  4     ecut=    30.00 Ry     beta=0.45
     Davidson diagonalization with overlap
     ethr =  4.06E-07,  avg # of iterations =  8.0

     total cpu time spent up to now is       25.5 secs

     End of self-consistent calculation

          k = 0.0000 0.0000 0.0000 ( 19321 PWs)   bands (ev):

   -18.9436 -14.0437 -11.2491  -9.7617  -8.2202  -6.4847  -0.7854  -0.4559
     0.2796   0.3417   0.3941   0.5869   0.6429   0.6988   1.2017   1.2167
     1.2624   1.4374   1.4655   1.5255

     the Fermi energy is    -3.5237 ev

!    total energy              =     -27.16401911 Ry
     Harris-Foulkes estimate   =     -27.16402193 Ry
     estimated scf accuracy    <       0.00000614 Ry

     convergence has been achieved in   4 iterations

     Forces acting on atoms (Ry/au):

     atom    1 type  1   force =    -0.04469892   -0.03501661   -0.00404229
     atom    2 type  2   force =     0.00015276    0.00519708   -0.00035767
     atom    3 type  2   force =     0.01628382   -0.00257871    0.00488337
     atom    4 type  1   force =     0.03918614   -0.02886341   -0.00587864
     atom    5 type  2   force =    -0.01213030    0.04496996    0.00014649
     atom    6 type  2   force =     0.00120651    0.01629169    0.00524874

     Total force =     0.091817     Total SCF correction =     0.000541

     Entering Dynamics:    iteration =     5
                           time      =   0.0050 pico-seconds


     Andersen thermostat:    6 collisions

ATOMIC_POSITIONS (alat)
C       -0.201320540   0.006387266  -0.000210980
H       -0.161768726  -0.072215568  -0.001493902
H       -0.289591277   0.004452755  -0.001045440
C       -0.150059378   0.097105977   0.000841628
H       -0.195212530   0.172604147  -0.000356872
H       -0.063890220   0.094709942  -0.004617756


     kinetic energy (Ekin) =     0.01443558 Ry
     temperature           =   303.89263249 K 
     Ekin + Etot (const)   =   -27.14958353 Ry
     Message from routine dynamics:
     Total linear momentum <> 0

     Linear momentum :    0.1112422637   -0.4451338688   -0.0037865549

     Writing output data file x.save
     Check: negative starting charge=   -0.040961
     NEW-OLD atomic charge density approx. for the potential
     Check: negative starting charge=   -0.041041

     negative rho (up, down):  9.949E-03 0.000E+00

     total cpu time spent up to now is       27.2 secs

     per-process dynamical memory:    19.6 Mb

     Self-consistent Calculation

     iteration #  1     ecut=    30.00 Ry     beta=0.45
     Davidson diagonalization with overlap
     ethr =  1.00E-06,  avg # of iterations = 13.0

     negative rho (up, down):  5.164E-03 0.000E+00

     total cpu time spent up to now is       28.4 secs

     total energy              =     -27.16361993 Ry
     Harris-Foulkes estimate   =     -27.16380650 Ry
     estimated scf accuracy    <       0.00069729 Ry

     iteration #  2     ecut=    30.00 Ry     beta=0.45
     Davidson diagonalization with overlap
     ethr =  5.81E-06,  avg # of iterations =  3.0

     negative rho (up, down):  2.619E-03 0.000E+00

     total cpu time spent up to now is       29.0 secs

     total energy              =     -27.16364883 Ry
     Harris-Foulkes estimate   =     -27.16370408 Ry
     estimated scf accuracy    <       0.00015134 Ry

     iteration #  3     ecut=    30.00 Ry     beta=0.45
     Davidson diagonalization with overlap
     ethr =  1.26E-06,  avg # of iterations =  8.0

     negative rho (up, down):  4.610E-04 0.000E+00

     total cpu time spent up to now is       29.7 secs

     total energy              =     -27.16364706 Ry
     Harris-Foulkes estimate   =     -27.16366667 Ry
     estimated scf accuracy    <       0.00003034 Ry

     iteration #  4     ecut=    30.00 Ry     beta=0.45
     Davidson diagonalization with overlap
     ethr =  2.53E-07,  avg # of iterations =  6.0

     total cpu time spent up to now is       30.4 secs

     End of self-consistent calculation

          k = 0.0000 0.0000 0.0000 ( 19321 PWs)   bands (ev):

   -18.9736 -13.9628 -11.2283  -9.7591  -8.1572  -6.5204  -0.7389  -0.4306
     0.2985   0.3486   0.4310   0.6231   0.6953   0.7474   1.2337   1.2677
     1.2904   1.4697   1.5069   1.5747

     the Fermi energy is    -3.4943 ev

!    total energy              =     -27.16365006 Ry
     Harris-Foulkes estimate   =     -27.16364999 Ry
     estimated scf accuracy    <       0.00000097 Ry

     convergence has been achieved in   4 iterations

     Forces acting on atoms (Ry/au):

     atom    1 type  1   force =    -0.05376223   -0.06153204   -0.00102605
     atom    2 type  2   force =    -0.00191131    0.01257315   -0.00015304
     atom    3 type  2   force =     0.01433746   -0.00255941    0.00329987
     atom    4 type  1   force =     0.00523607    0.03835316   -0.00959912
     atom    5 type  2   force =     0.01849228   -0.00508942    0.00233260
     atom    6 type  2   force =     0.01760774    0.01825457    0.00514573

     Total force =     0.098468     Total SCF correction =     0.000874

     Entering Dynamics:    iteration =     6
                           time      =   0.0060 pico-seconds


     Andersen thermostat:    6 collisions

ATOMIC_POSITIONS (alat)
C       -0.201516276   0.006177480  -0.000233599
H       -0.160959188  -0.070020580  -0.002005114
H       -0.288185295   0.005064715   0.000645696
C       -0.150077424   0.097318130   0.000733450
H       -0.195768371   0.171382153  -0.000330111
H       -0.063002757   0.093096790  -0.004266040


     kinetic energy (Ekin) =     0.01084520 Ry
     temperature           =   228.30921207 K 
     Ekin + Etot (const)   =   -27.15280486 Ry
     Message from routine dynamics:
     Total linear momentum <> 0

     Linear momentum :   -0.0615130574    0.0328182656    0.1611285033

     Writing output data file x.save
     Check: negative starting charge=   -0.041041
     NEW-OLD atomic charge density approx. for the potential
     Check: negative starting charge=   -0.040784

     negative rho (up, down):  1.025E-02 0.000E+00

     total cpu time spent up to now is       32.1 secs

     per-process dynamical memory:    19.6 Mb

     Self-consistent Calculation

     iteration #  1     ecut=    30.00 Ry     beta=0.45
     Davidson diagonalization with overlap
     ethr =  1.00E-06,  avg # of iterations = 13.0

     negative rho (up, down):  5.297E-03 0.000E+00

     total cpu time spent up to now is       33.3 secs

     total energy              =     -27.16324017 Ry
     Harris-Foulkes estimate   =     -27.16351608 Ry
     estimated scf accuracy    <       0.00081851 Ry

     iteration #  2     ecut=    30.00 Ry     beta=0.45
     Davidson diagonalization with overlap
     ethr =  6.82E-06,  avg # of iterations =  3.0

     negative rho (up, down):  3.301E-03 0.000E+00

     total cpu time spent up to now is       33.9 secs

     total energy              =     -27.16335480 Ry
     Harris-Foulkes estimate   =     -27.16343436 Ry
     estimated scf accuracy    <       0.00020211 Ry

     iteration #  3     ecut=    30.00 Ry     beta=0.45
     Davidson diagonalization with overlap
     ethr =  1.68E-06,  avg # of iterations =  7.0

     negative rho (up, down):  7.244E-04 0.000E+00

     total cpu time spent up to now is       34.6 secs

     total energy              =     -27.16336215 Ry
     Harris-Foulkes estimate   =     -27.16338558 Ry
     estimated scf accuracy    <       0.00002905 Ry

     iteration #  4     ecut=    30.00 Ry     beta=0.45
     Davidson diagonalization with overlap
     ethr =  2.42E-07,  avg # of iterations =  4.0

     total cpu time spent up to now is       35.3 secs

     End of self-consistent calculation

          k = 0.0000 0.0000 0.0000 ( 19321 PWs)   bands (ev):

   -18.9754 -13.9976 -11.3335  -9.6627  -8.2597  -6.4941  -0.7531  -0.4352
     0.3144   0.3543   0.4135   0.6128   0.6798   0.7318   1.2337   1.2501
     1.2776   1.4608   1.4931   1.5593

     the Fermi energy is    -3.5063 ev

!    total energy              =     -27.16336382 Ry
     Harris-Foulkes estimate   =     -27.16336399 Ry
     estimated scf accuracy    <       0.00000160 Ry

     convergence has been achieved in   4 iterations

     Forces acting on atoms (Ry/au):

     atom    1 type  1   force =    -0.02966879   -0.02222836    0.00137114
     atom    2 type  2   force =     0.00711777   -0.01511984   -0.00008078
     atom    3 type  2   force =    -0.01268788   -0.00624150    0.00128692
     atom    4 type  1   force =     0.02013190    0.00900315   -0.00961169
     atom    5 type  2   force =     0.01448774    0.01115881    0.00268513
     atom    6 type  2   force =     0.00061926    0.02342774    0.00434928

     Total force =     0.057841     Total SCF correction =     0.000642

     Entering Dynamics:    iteration =     7
                           time      =   0.0070 pico-seconds


     Andersen thermostat:    6 collisions

ATOMIC_POSITIONS (alat)
C       -0.201471962   0.005412529  -0.000338229
H       -0.161659879  -0.069500568  -0.001465513
H       -0.287075086   0.004747445   0.002795478
C       -0.150279426   0.097869080   0.000731155
H       -0.194767436   0.171710550  -0.000696631
H       -0.062534409   0.095115396  -0.005314929


     kinetic energy (Ekin) =     0.01540046 Ry
     temperature           =   324.20496277 K 
     Ekin + Etot (const)   =   -27.14796336 Ry
     Message from routine dynamics:
     Total linear momentum <> 0

     Linear momentum :   -0.0916052065    0.0585798933    0.1691936645

     Writing output data file x.save
     Check: negative starting charge=   -0.040784
     NEW-OLD atomic charge density approx. for the potential
     Check: negative starting charge=   -0.040668

     negative rho (up, down):  9.622E-03 0.000E+00

     total cpu time spent up to now is       36.9 secs

     per-process dynamical memory:    19.6 Mb

     Self-consistent Calculation

     iteration #  1     ecut=    30.00 Ry     beta=0.45
     Davidson diagonalization with overlap
     ethr =  1.00E-06,  avg # of iterations = 12.0

     negative rho (up, down):  4.972E-03 0.000E+00

     total cpu time spent up to now is       38.0 secs

     total energy              =     -27.16298636 Ry
     Harris-Foulkes estimate   =     -27.16314792 Ry
     estimated scf accuracy    <       0.00059825 Ry

     iteration #  2     ecut=    30.00 Ry     beta=0.45
     Davidson diagonalization with overlap
     ethr =  4.99E-06,  avg # of iterations =  4.0

     negative rho (up, down):  2.776E-03 0.000E+00

     total cpu time spent up to now is       38.7 secs

     total energy              =     -27.16302733 Ry
     Harris-Foulkes estimate   =     -27.16308102 Ry
     estimated scf accuracy    <       0.00013295 Ry

     iteration #  3     ecut=    30.00 Ry     beta=0.45
     Davidson diagonalization with overlap
     ethr =  1.11E-06,  avg # of iterations =  8.0

     negative rho (up, down):  6.143E-04 0.000E+00

     total cpu time spent up to now is       39.4 secs

     total energy              =     -27.16302883 Ry
     Harris-Foulkes estimate   =     -27.16304690 Ry
     estimated scf accuracy    <       0.00002683 Ry

     iteration #  4     ecut=    30.00 Ry     beta=0.45
     Davidson diagonalization with overlap
     ethr =  2.24E-07,  avg # of iterations =  4.0

     total cpu time spent up to now is       40.0 secs

     End of self-consistent calculation

          k = 0.0000 0.0000 0.0000 ( 19321 PWs)   bands (ev):

   -18.9181 -14.1171 -11.3067  -9.6949  -8.3187  -6.4476  -0.8307  -0.4277
     0.3136   0.3743   0.4273   0.6193   0.6882   0.7366   1.2471   1.2600
     1.2947   1.4663   1.5018   1.5651

     the Fermi energy is    -3.4877 ev

!    total energy              =     -27.16303148 Ry
     Harris-Foulkes estimate   =     -27.16303133 Ry
     estimated scf accuracy    <       0.00000142 Ry

     convergence has been achieved in   4 iterations

     Forces acting on atoms (Ry/au):

     atom    1 type  1   force =    -0.01059893    0.03360372    0.00593858
     atom    2 type  2   force =     0.02243908   -0.03934494   -0.00142761
     atom    3 type  2   force =    -0.03222764   -0.00668445    0.00017859
     atom    4 type  1   force =     0.02855263   -0.02789041   -0.01329356
     atom    5 type  2   force =     0.00267665    0.02108043    0.00344821
     atom    6 type  2   force =    -0.01084178    0.01923565    0.00515580

     Total force =     0.084624     Total SCF correction =     0.000717

     Entering Dynamics:    iteration =     8
                           time      =   0.0080 pico-seconds


     Andersen thermostat:    6 collisions

ATOMIC_POSITIONS (alat)
C       -0.201877250   0.005657858  -0.000214916
H       -0.162999079  -0.069911431  -0.001141430
H       -0.288707910   0.005083038  -0.000511656
C       -0.149593230   0.097469090   0.000651997
H       -0.195822097   0.171673035   0.002633984
H       -0.061854643   0.097070928  -0.006188583


     kinetic energy (Ekin) =     0.02611976 Ry
     temperature           =   549.86397297 K 
     Ekin + Etot (const)   =   -27.13691172 Ry
     Message from routine dynamics:
     Total linear momentum <> 0

     Linear momentum :   -0.0438101634   -0.0352546911    0.0913828791

     Writing output data file x.save
     Check: negative starting charge=   -0.040668
     NEW-OLD atomic charge density approx. for the potential
     Check: negative starting charge=   -0.040709

     negative rho (up, down):  1.517E-02 0.000E+00

     total cpu time spent up to now is       41.7 secs

     per-process dynamical memory:    19.6 Mb

     Self-consistent Calculation

     iteration #  1     ecut=    30.00 Ry     beta=0.45
     Davidson diagonalization with overlap
     ethr =  1.00E-06,  avg # of iterations = 12.0

     negative rho (up, down):  7.888E-03 0.000E+00

     total cpu time spent up to now is       42.8 secs

     total energy              =     -27.16439298 Ry
     Harris-Foulkes estimate   =     -27.16432855 Ry
     estimated scf accuracy    <       0.00059438 Ry

     iteration #  2     ecut=    30.00 Ry     beta=0.45
     Davidson diagonalization with overlap
     ethr =  4.95E-06,  avg # of iterations =  4.0

     negative rho (up, down):  2.413E-03 0.000E+00

     total cpu time spent up to now is       43.5 secs

     total energy              =     -27.16443585 Ry
     Harris-Foulkes estimate   =     -27.16442975 Ry
     estimated scf accuracy    <       0.00011344 Ry

     iteration #  3     ecut=    30.00 Ry     beta=0.45
     Davidson diagonalization with overlap
     ethr =  9.45E-07,  avg # of iterations =  8.0

     negative rho (up, down):  2.783E-04 0.000E+00

     total cpu time spent up to now is       44.3 secs

     total energy              =     -27.16443107 Ry
     Harris-Foulkes estimate   =     -27.16444217 Ry
     estimated scf accuracy    <       0.00001131 Ry

     iteration #  4     ecut=    30.00 Ry     beta=0.45
     Davidson diagonalization with overlap
     ethr =  9.42E-08,  avg # of iterations =  8.0

     total cpu time spent up to now is       45.0 secs

     End of self-consistent calculation

          k = 0.0000 0.0000 0.0000 ( 19321 PWs)   bands (ev):

   -18.8932 -14.0804 -11.2428  -9.7037  -8.2912  -6.4408  -0.8321  -0.4195
     0.3082   0.3761   0.4476   0.6351   0.7134   0.7621   1.2650   1.2790
     1.3081   1.4815   1.5242   1.5874

     the Fermi energy is    -3.4647 ev

!    total energy              =     -27.16443224 Ry
     Harris-Foulkes estimate   =     -27.16443227 Ry
     estimated scf accuracy    <       0.00000084 Ry

     convergence has been achieved in   4 iterations

     Forces acting on atoms (Ry/au):

     atom    1 type  1   force =    -0.02399651    0.02570302    0.00070193
     atom    2 type  2   force =     0.02136444   -0.03752947   -0.00334760
     atom    3 type  2   force =    -0.00957377   -0.00346969    0.00470229
     atom    4 type  1   force =     0.00923430   -0.00287760   -0.00857876
     atom    5 type  2   force =     0.01551463    0.00464617   -0.00142748
     atom    6 type  2   force =    -0.01254309    0.01352755    0.00794961

     Total force =     0.063827     Total SCF correction =     0.000981

     Entering Dynamics:    iteration =     9
                           time      =   0.0090 pico-seconds


     Andersen thermostat:    6 collisions

ATOMIC_POSITIONS (alat)
C       -0.202084196   0.005175318  -0.000474428
H       -0.163860400  -0.068553770  -0.001072549
H       -0.290211638   0.005964203  -0.001504144
C       -0.149231803   0.097703314   0.001036994
H       -0.194324574   0.171745578   0.001972801
H       -0.062827719   0.097718163  -0.006098903


     kinetic energy (Ekin) =     0.01320272 Ry
     temperature           =   277.93897813 K 
     Ekin + Etot (const)   =   -27.15122952 Ry
     Message from routine dynamics:
     Total linear momentum <> 0

     Linear momentum :   -0.2663708964   -0.0925565053   -0.1184388535

     Writing output data file x.save
     Check: negative starting charge=   -0.040709
     NEW-OLD atomic charge density approx. for the potential
     Check: negative starting charge=   -0.040579

     negative rho (up, down):  8.527E-03 0.000E+00

     total cpu time spent up to now is       46.8 secs

     per-process dynamical memory:    19.6 Mb

     Self-consistent Calculation

     iteration #  1     ecut=    30.00 Ry     beta=0.45
     Davidson diagonalization with overlap
     ethr =  1.00E-06,  avg # of iterations =  8.0

     negative rho (up, down):  4.396E-03 0.000E+00

     total cpu time spent up to now is       47.8 secs

     total energy              =     -27.16163673 Ry
     Harris-Foulkes estimate   =     -27.16182443 Ry
     estimated scf accuracy    <       0.00055216 Ry

     iteration #  2     ecut=    30.00 Ry     beta=0.45
     Davidson diagonalization with overlap
     ethr =  4.60E-06,  avg # of iterations =  3.0

     negative rho (up, down):  2.261E-03 0.000E+00

     total cpu time spent up to now is       48.4 secs

     total energy              =     -27.16164197 Ry
     Harris-Foulkes estimate   =     -27.16170599 Ry
     estimated scf accuracy    <       0.00012186 Ry

     iteration #  3     ecut=    30.00 Ry     beta=0.45
     Davidson diagonalization with overlap
     ethr =  1.02E-06,  avg # of iterations =  4.0

     negative rho (up, down):  4.111E-04 0.000E+00

     total cpu time spent up to now is       49.1 secs

     total energy              =     -27.16164291 Ry
     Harris-Foulkes estimate   =     -27.16165757 Ry
     estimated scf accuracy    <       0.00002575 Ry

     iteration #  4     ecut=    30.00 Ry     beta=0.45
     Davidson diagonalization with overlap
     ethr =  2.15E-07,  avg # of iterations =  4.0

     total cpu time spent up to now is       49.7 secs

     End of self-consistent calculation

          k = 0.0000 0.0000 0.0000 ( 19321 PWs)   bands (ev):

   -18.8542 -14.1759 -11.2604  -9.6933  -8.3612  -6.3988  -0.8963  -0.4218
     0.3087   0.3833   0.4481   0.6304   0.7002   0.7509   1.2616   1.2763
     1.3097   1.4762   1.5151   1.5787

     the Fermi energy is    -3.4615 ev

!    total energy              =     -27.16164638 Ry
     Harris-Foulkes estimate   =     -27.16164550 Ry
     estimated scf accuracy    <       0.00000087 Ry

     convergence has been achieved in   4 iterations

     Forces acting on atoms (Ry/au):

     atom    1 type  1   force =    -0.05143349    0.08865975    0.00146258
     atom    2 type  2   force =     0.03902660   -0.07557645   -0.00363262
     atom    3 type  2   force =     0.01308098   -0.00549568    0.00499445
     atom    4 type  1   force =    -0.01735623   -0.03234456   -0.01011157
     atom    5 type  2   force =     0.00607342    0.01393241   -0.00005896
     atom    6 type  2   force =     0.01060872    0.01082452    0.00734611

     Total force =     0.141233     Total SCF correction =     0.000866

     Entering Dynamics:    iteration =    10
                           time      =   0.0100 pico-seconds


     Andersen thermostat:    6 collisions

ATOMIC_POSITIONS (alat)
C       -0.202077944   0.005287391  -0.000421677
H       -0.164324771  -0.070088343   0.000692033
H       -0.290536724   0.006459563  -0.000815200
C       -0.148970748   0.097796970   0.000919343
H       -0.195158913   0.171449067   0.001946116
H       -0.064388802   0.096602684  -0.007752483


     kinetic energy (Ekin) =     0.01006532 Ry
     temperature           =   211.89152173 K 
     Ekin + Etot (const)   =   -27.15158106 Ry
     Message from routine dynamics:
     Total linear momentum <> 0

     Linear momentum :   -0.1353972584   -0.0681047977   -0.1977118575

     Writing output data file x.save
     Check: negative starting charge=   -0.040579
     NEW-OLD atomic charge density approx. for the potential
     Check: negative starting charge=   -0.040645

     negative rho (up, down):  9.558E-03 0.000E+00

     total cpu time spent up to now is       51.4 secs

     per-process dynamical memory:    19.6 Mb

     Self-consistent Calculation

     iteration #  1     ecut=    30.00 Ry     beta=0.45
     Davidson diagonalization with overlap
     ethr =  1.00E-06,  avg # of iterations = 13.0

     negative rho (up, down):  4.937E-03 0.000E+00

     total cpu time spent up to now is       52.5 secs

     total energy              =     -27.16130603 Ry
     Harris-Foulkes estimate   =     -27.16151512 Ry
     estimated scf accuracy    <       0.00066141 Ry

     iteration #  2     ecut=    30.00 Ry     beta=0.45
     Davidson diagonalization with overlap
     ethr =  5.51E-06,  avg # of iterations =  3.0

     negative rho (up, down):  3.147E-03 0.000E+00

     total cpu time spent up to now is       53.1 secs

     total energy              =     -27.16139260 Ry
     Harris-Foulkes estimate   =     -27.16146568 Ry
     estimated scf accuracy    <       0.00019924 Ry

     iteration #  3     ecut=    30.00 Ry     beta=0.45
     Davidson diagonalization with overlap
     ethr =  1.66E-06,  avg # of iterations =  6.0

     negative rho (up, down):  5.261E-04 0.000E+00

     total cpu time spent up to now is       53.7 secs

     total energy              =     -27.16139702 Ry
     Harris-Foulkes estimate   =     -27.16142272 Ry
     estimated scf accuracy    <       0.00002724 Ry

     iteration #  4     ecut=    30.00 Ry     beta=0.45
     Davidson diagonalization with overlap
     ethr =  2.27E-07,  avg # of iterations =  5.0

     total cpu time spent up to now is       54.4 secs

     End of self-consistent calculation

          k = 0.0000 0.0000 0.0000 ( 19321 PWs)   bands (ev):

   -18.8521 -14.1599 -11.2861  -9.6569  -8.3747  -6.3902  -0.9079  -0.4277
     0.3084   0.3741   0.4390   0.6234   0.6931   0.7407   1.2475   1.2674
     1.2993   1.4705   1.5074   1.5712

     the Fermi energy is    -3.4666 ev

!    total energy              =     -27.16139943 Ry
     Harris-Foulkes estimate   =     -27.16139937 Ry
     estimated scf accuracy    <       0.00000118 Ry

     convergence has been achieved in   4 iterations

     Forces acting on atoms (Ry/au):

     atom    1 type  1   force =    -0.04618657    0.06605830    0.00429455
     atom    2 type  2   force =     0.02727655   -0.05012127   -0.00477522
     atom    3 type  2   force =     0.01798545   -0.00585012    0.00505879
     atom    4 type  1   force =    -0.05295605   -0.03587066   -0.00952684
     atom    5 type  2   force =     0.01113276    0.01137770   -0.00112905
     atom    6 type  2   force =     0.04274787    0.01440605    0.00607776

     Total force =     0.129174     Total SCF correction =     0.000988

     Entering Dynamics:    iteration =    11
                           time      =   0.0110 pico-seconds


     Andersen thermostat:    6 collisions

ATOMIC_POSITIONS (alat)
C       -0.202063134   0.005492416  -0.000137249
H       -0.164295428  -0.072236802   0.001120068
H       -0.291263272   0.006959963  -0.001134220
C       -0.149037039   0.097697487   0.000768594
H       -0.196790445   0.170123263   0.000136690
H       -0.061446684   0.098319053  -0.007644821


     kinetic energy (Ekin) =     0.01462744 Ry
     temperature           =   307.93164492 K 
     Ekin + Etot (const)   =   -27.14677199 Ry
     Message from routine dynamics:
     Total linear momentum <> 0

     Linear momentum :   -0.1110291994    0.0932990677   -0.0257060627

     Writing output data file x.save
     Check: negative starting charge=   -0.040645
     NEW-OLD atomic charge density approx. for the potential
     Check: negative starting charge=   -0.040565

     negative rho (up, down):  1.242E-02 0.000E+00

     total cpu time spent up to now is       56.1 secs

     per-process dynamical memory:    19.6 Mb

     Self-consistent Calculation

     iteration #  1     ecut=    30.00 Ry     beta=0.45
     Davidson diagonalization with overlap
     ethr =  1.00E-06,  avg # of iterations = 13.0

     negative rho (up, down):  6.449E-03 0.000E+00

     total cpu time spent up to now is       57.2 secs

     total energy              =     -27.16343104 Ry
     Harris-Foulkes estimate   =     -27.16373692 Ry
     estimated scf accuracy    <       0.00116239 Ry

     iteration #  2     ecut=    30.00 Ry     beta=0.45
     Davidson diagonalization with overlap
     ethr =  9.69E-06,  avg # of iterations =  3.0

     negative rho (up, down):  2.535E-03 0.000E+00

     total cpu time spent up to now is       57.8 secs

     total energy              =     -27.16349605 Ry
     Harris-Foulkes estimate   =     -27.16354258 Ry
     estimated scf accuracy    <       0.00014106 Ry

     iteration #  3     ecut=    30.00 Ry     beta=0.45
     Davidson diagonalization with overlap
     ethr =  1.18E-06,  avg # of iterations =  8.0

     negative rho (up, down):  3.439E-04 0.000E+00

     total cpu time spent up to now is       58.6 secs

     total energy              =     -27.16349375 Ry
     Harris-Foulkes estimate   =     -27.16350679 Ry
     estimated scf accuracy    <       0.00001911 Ry

     iteration #  4     ecut=    30.00 Ry     beta=0.45
     Davidson diagonalization with overlap
     ethr =  1.59E-07,  avg # of iterations =  8.0

     total cpu time spent up to now is       59.4 secs

     End of self-consistent calculation

          k = 0.0000 0.0000 0.0000 ( 19321 PWs)   bands (ev):

   -18.8290 -14.0298 -11.1957  -9.6466  -8.2784  -6.4118  -0.8877  -0.4310
     0.2877   0.3651   0.4359   0.6303   0.7024   0.7561   1.2530   1.2672
     1.2937   1.4756   1.5170   1.5779

     the Fermi energy is    -3.4558 ev

!    total energy              =     -27.16349598 Ry
     Harris-Foulkes estimate   =     -27.16349581 Ry
     estimated scf accuracy    <       0.00000093 Ry

     convergence has been achieved in   4 iterations

     Forces acting on atoms (Ry/au):

     atom    1 type  1   force =    -0.03856777    0.01938751    0.00303245
     atom    2 type  2   force =     0.00879367   -0.01212860   -0.00390505
     atom    3 type  2   force =     0.02938710   -0.00597740    0.00516553
     atom    4 type  1   force =     0.00160134   -0.03058405   -0.01495214
     atom    5 type  2   force =     0.01187722    0.01760437   -0.00000929
     atom    6 type  2   force =    -0.01309157    0.01169817    0.01066849

     Total force =     0.071224     Total SCF correction =     0.001184

     Entering Dynamics:    iteration =    12
                           time      =   0.0120 pico-seconds


     Andersen thermostat:    6 collisions

ATOMIC_POSITIONS (alat)
C       -0.202410028   0.005523236  -0.000015354
H       -0.163346014  -0.073380625   0.000345898
H       -0.291312809   0.006429375   0.000674804
C       -0.148880408   0.097803105   0.000503461
H       -0.195802827   0.169792638   0.000806967
H       -0.061067251   0.098698479  -0.007643311


     kinetic energy (Ekin) =     0.00684767 Ry
     temperature           =   144.15464841 K 
     Ekin + Etot (const)   =   -27.15664831 Ry
     Message from routine dynamics:
     Total linear momentum <> 0

     Linear momentum :    0.1513357242    0.0500579986   -0.1361716833

     Writing output data file x.save
     Check: negative starting charge=   -0.040565
     NEW-OLD atomic charge density approx. for the potential
     Check: negative starting charge=   -0.040522

     negative rho (up, down):  7.235E-03 0.000E+00

     total cpu time spent up to now is       61.0 secs

     per-process dynamical memory:    19.6 Mb

     Self-consistent Calculation

     iteration #  1     ecut=    30.00 Ry     beta=0.45
     Davidson diagonalization with overlap
     ethr =  1.00E-06,  avg # of iterations =  9.0

     negative rho (up, down):  3.715E-03 0.000E+00

     total cpu time spent up to now is       62.0 secs

     total energy              =     -27.16397378 Ry
     Harris-Foulkes estimate   =     -27.16412105 Ry
     estimated scf accuracy    <       0.00036650 Ry

     iteration #  2     ecut=    30.00 Ry     beta=0.45
     Davidson diagonalization with overlap
     ethr =  3.05E-06,  avg # of iterations =  4.0

     negative rho (up, down):  2.239E-03 0.000E+00

     total cpu time spent up to now is       62.7 secs

     total energy              =     -27.16400430 Ry
     Harris-Foulkes estimate   =     -27.16404761 Ry
     estimated scf accuracy    <       0.00009472 Ry

     iteration #  3     ecut=    30.00 Ry     beta=0.45
     Davidson diagonalization with overlap
     ethr =  7.89E-07,  avg # of iterations =  3.0

     negative rho (up, down):  4.474E-04 0.000E+00

     total cpu time spent up to now is       63.1 secs

     total energy              =     -27.16400634 Ry
     Harris-Foulkes estimate   =     -27.16401801 Ry
     estimated scf accuracy    <       0.00001705 Ry

     iteration #  4     ecut=    30.00 Ry     beta=0.45
     Davidson diagonalization with overlap
     ethr =  1.42E-07,  avg # of iterations =  5.0

     total cpu time spent up to now is       63.8 secs

     End of self-consistent calculation

          k = 0.0000 0.0000 0.0000 ( 19321 PWs)   bands (ev):

   -18.8028 -14.0250 -11.1699  -9.6420  -8.2815  -6.4028  -0.9032  -0.4354
     0.2808   0.3613   0.4262   0.6251   0.6961   0.7464   1.2456   1.2571
     1.2838   1.4677   1.5118   1.5670

     the Fermi energy is    -3.4574 ev

!    total energy              =     -27.16400791 Ry
     Harris-Foulkes estimate   =     -27.16400761 Ry
     estimated scf accuracy    <       0.00000071 Ry

     convergence has been achieved in   4 iterations

     Forces acting on atoms (Ry/au):

     atom    1 type  1   force =    -0.01407910    0.00091284    0.00397559
     atom    2 type  2   force =    -0.00462322    0.01250075   -0.00344438
     atom    3 type  2   force =     0.02545989   -0.00478007    0.00332065
     atom    4 type  1   force =     0.00734886   -0.04843746   -0.01323806
     atom    5 type  2   force =     0.00261721    0.03008529    0.00009743
     atom    6 type  2   force =    -0.01672365    0.00971865    0.00928877

     Total force =     0.070953     Total SCF correction =     0.000462

     Entering Dynamics:    iteration =    13
                           time      =   0.0130 pico-seconds


     Andersen thermostat:    6 collisions

ATOMIC_POSITIONS (alat)
C       -0.202683257   0.005647947  -0.000120686
H       -0.162660755  -0.072993114  -0.001344995
H       -0.290142317   0.004249634  -0.000439493
C       -0.149060048   0.097765208   0.000763953
H       -0.194823660   0.170293260   0.002607096
H       -0.058506391   0.098955710  -0.008486930


     kinetic energy (Ekin) =     0.01611507 Ry
     temperature           =   339.24870513 K 
     Ekin + Etot (const)   =   -27.14789283 Ry
     Message from routine dynamics:
     Total linear momentum <> 0

     Linear momentum :    0.1166636932    0.1744937324   -0.0516457323

     Writing output data file x.save
     Check: negative starting charge=   -0.040522
     NEW-OLD atomic charge density approx. for the potential
     Check: negative starting charge=   -0.040423

     negative rho (up, down):  1.236E-02 0.000E+00

     total cpu time spent up to now is       65.5 secs

     per-process dynamical memory:    19.6 Mb

     Self-consistent Calculation

     iteration #  1     ecut=    30.00 Ry     beta=0.45
     Davidson diagonalization with overlap
     ethr =  1.00E-06,  avg # of iterations = 13.0

     negative rho (up, down):  6.413E-03 0.000E+00

     total cpu time spent up to now is       66.6 secs

     total energy              =     -27.16205933 Ry
     Harris-Foulkes estimate   =     -27.16240770 Ry
     estimated scf accuracy    <       0.00110488 Ry

     iteration #  2     ecut=    30.00 Ry     beta=0.45
     Davidson diagonalization with overlap
     ethr =  9.21E-06,  avg # of iterations =  3.0

     negative rho (up, down):  4.132E-03 0.000E+00

     total cpu time spent up to now is       67.2 secs

     total energy              =     -27.16222054 Ry
     Harris-Foulkes estimate   =     -27.16233559 Ry
     estimated scf accuracy    <       0.00033756 Ry

     iteration #  3     ecut=    30.00 Ry     beta=0.45
     Davidson diagonalization with overlap
     ethr =  2.81E-06,  avg # of iterations =  4.0

     negative rho (up, down):  6.930E-04 0.000E+00

     total cpu time spent up to now is       67.8 secs

     total energy              =     -27.16223566 Ry
     Harris-Foulkes estimate   =     -27.16227074 Ry
     estimated scf accuracy    <       0.00004528 Ry

     iteration #  4     ecut=    30.00 Ry     beta=0.45
     Davidson diagonalization with overlap
     ethr =  3.77E-07,  avg # of iterations =  7.0

     total cpu time spent up to now is       68.5 secs

     End of self-consistent calculation

          k = 0.0000 0.0000 0.0000 ( 19321 PWs)   bands (ev):

   -18.7942 -14.0263 -11.1050  -9.6819  -8.2498  -6.4045  -0.9061  -0.4467
     0.2581   0.3524   0.4123   0.6121   0.6779   0.7298   1.2253   1.2352
     1.2750   1.4579   1.4966   1.5488

     the Fermi energy is    -3.4689 ev

!    total energy              =     -27.16223912 Ry
     Harris-Foulkes estimate   =     -27.16223914 Ry
     estimated scf accuracy    <       0.00000175 Ry

     convergence has been achieved in   4 iterations

     Forces acting on atoms (Ry/au):

     atom    1 type  1   force =     0.01325631   -0.00855047   -0.00036611
     atom    2 type  2   force =    -0.00553473    0.01501182   -0.00287665
     atom    3 type  2   force =     0.00233363    0.00024876    0.00567998
     atom    4 type  1   force =     0.04797682   -0.04576024   -0.01639546
     atom    5 type  2   force =    -0.00031386    0.03216452   -0.00027895
     atom    6 type  2   force =    -0.05771816    0.00688560    0.01423719

     Total force =     0.099156     Total SCF correction =     0.001128

     Entering Dynamics:    iteration =    14
                           time      =   0.0140 pico-seconds


     Andersen thermostat:    6 collisions

ATOMIC_POSITIONS (alat)
C       -0.202684163   0.005784954  -0.000607165
H       -0.163114788  -0.072985538  -0.000751163
H       -0.289981251   0.004033953  -0.000314535
C       -0.149152200   0.097472378   0.001078838
H       -0.193204893   0.170878640   0.003957308
H       -0.058723425   0.100435022  -0.008511434


     kinetic energy (Ekin) =     0.00823423 Ry
     temperature           =   173.34417714 K 
     Ekin + Etot (const)   =   -27.15400488 Ry
     Message from routine dynamics:
     Total linear momentum <> 0

     Linear momentum :    0.0420724390    0.1644882164    0.0473249510

     Writing output data file x.save
     Check: negative starting charge=   -0.040423
     NEW-OLD atomic charge density approx. for the potential
     Check: negative starting charge=   -0.040528

     negative rho (up, down):  6.997E-03 0.000E+00

     total cpu time spent up to now is       70.2 secs

     per-process dynamical memory:    19.6 Mb

     Self-consistent Calculation

     iteration #  1     ecut=    30.00 Ry     beta=0.45
     Davidson diagonalization with overlap
     ethr =  1.00E-06,  avg # of iterations =  8.0

     negative rho (up, down):  3.599E-03 0.000E+00

     total cpu time spent up to now is       71.2 secs

     total energy              =     -27.16295963 Ry
     Harris-Foulkes estimate   =     -27.16297763 Ry
     estimated scf accuracy    <       0.00011654 Ry

     iteration #  2     ecut=    30.00 Ry     beta=0.45
     Davidson diagonalization with overlap
     ethr =  9.71E-07,  avg # of iterations =  4.0

     negative rho (up, down):  1.297E-03 0.000E+00

     total cpu time spent up to now is       71.9 secs

     total energy              =     -27.16295223 Ry
     Harris-Foulkes estimate   =     -27.16296877 Ry
     estimated scf accuracy    <       0.00002337 Ry

     iteration #  3     ecut=    30.00 Ry     beta=0.45
     Davidson diagonalization with overlap
     ethr =  1.95E-07,  avg # of iterations =  4.0

     total cpu time spent up to now is       72.5 secs

     End of self-consistent calculation

          k = 0.0000 0.0000 0.0000 ( 19321 PWs)   bands (ev):

   -18.8144 -14.0580 -11.0643  -9.7723  -8.2129  -6.4176  -0.8909  -0.4600
     0.2415   0.3442   0.3931   0.5880   0.6487   0.6982   1.1967   1.2047
     1.2649   1.4383   1.4696   1.5220

     the Fermi energy is    -3.4941 ev

!    total energy              =     -27.16295152 Ry
     Harris-Foulkes estimate   =     -27.16295432 Ry
     estimated scf accuracy    <       0.00000400 Ry

     convergence has been achieved in   3 iterations

     Forces acting on atoms (Ry/au):

     atom    1 type  1   force =     0.00959168   -0.01625338    0.00302862
     atom    2 type  2   force =    -0.00335405    0.01395381   -0.00530264
     atom    3 type  2   force =    -0.00077073    0.00160638    0.00532698
     atom    4 type  1   force =     0.05670524   -0.03158877   -0.01728800
     atom    5 type  2   force =    -0.00594387    0.03165597   -0.00073236
     atom    6 type  2   force =    -0.05622827    0.00062598    0.01496740

     Total force =     0.097812     Total SCF correction =     0.001827

     Entering Dynamics:    iteration =    15
                           time      =   0.0150 pico-seconds


     Andersen thermostat:    6 collisions

ATOMIC_POSITIONS (alat)
C       -0.202813624   0.006151001  -0.000470423
H       -0.163598154  -0.071270780   0.001127009
H       -0.290989559   0.001804488  -0.001237793
C       -0.148888355   0.097119837   0.000912443
H       -0.192488513   0.169892073   0.002824351
H       -0.059549281   0.101775375  -0.007980092


     kinetic energy (Ekin) =     0.01553704 Ry
     temperature           =   327.08027722 K 
     Ekin + Etot (const)   =   -27.14741448 Ry
     Message from routine dynamics:
     Total linear momentum <> 0

     Linear momentum :   -0.1451288890    0.2274698280    0.1425840144

     Writing output data file x.save
     Check: negative starting charge=   -0.040528
     NEW-OLD atomic charge density approx. for the potential
     Check: negative starting charge=   -0.040566

     negative rho (up, down):  1.123E-02 0.000E+00

     total cpu time spent up to now is       74.2 secs

     per-process dynamical memory:    19.6 Mb

     Self-consistent Calculation

     iteration #  1     ecut=    30.00 Ry     beta=0.45
     Davidson diagonalization with overlap
     ethr =  1.00E-06,  avg # of iterations = 13.0

     negative rho (up, down):  5.822E-03 0.000E+00

     total cpu time spent up to now is       75.4 secs

     total energy              =     -27.16270212 Ry
     Harris-Foulkes estimate   =     -27.16281745 Ry
     estimated scf accuracy    <       0.00059371 Ry

     iteration #  2     ecut=    30.00 Ry     beta=0.45
     Davidson diagonalization with overlap
     ethr =  4.95E-06,  avg # of iterations =  4.0

     negative rho (up, down):  2.586E-03 0.000E+00

     total cpu time spent up to now is       76.0 secs

     total energy              =     -27.16272573 Ry
     Harris-Foulkes estimate   =     -27.16276550 Ry
     estimated scf accuracy    <       0.00009438 Ry

     iteration #  3     ecut=    30.00 Ry     beta=0.45
     Davidson diagonalization with overlap
     ethr =  7.87E-07,  avg # of iterations =  6.0

     negative rho (up, down):  8.175E-04 0.000E+00

     total cpu time spent up to now is       76.7 secs

     total energy              =     -27.16272201 Ry
     Harris-Foulkes estimate   =     -27.16273682 Ry
     estimated scf accuracy    <       0.00001965 Ry

     iteration #  4     ecut=    30.00 Ry     beta=0.45
     Davidson diagonalization with overlap
     ethr =  1.64E-07,  avg # of iterations =  4.0

     total cpu time spent up to now is       77.3 secs

     End of self-consistent calculation

          k = 0.0000 0.0000 0.0000 ( 19321 PWs)   bands (ev):

   -18.8531 -14.1270 -11.0568  -9.8702  -8.1922  -6.4328  -0.8750  -0.4390
     0.2465   0.3747   0.4219   0.6080   0.6751   0.7219   1.2175   1.2403
     1.2946   1.4630   1.4897   1.5440

     the Fermi energy is    -3.4873 ev

!    total energy              =     -27.16272367 Ry
     Harris-Foulkes estimate   =     -27.16272438 Ry
     estimated scf accuracy    <       0.00000197 Ry

     convergence has been achieved in   4 iterations

     Forces acting on atoms (Ry/au):

     atom    1 type  1   force =    -0.01560834   -0.01634885    0.00365591
     atom    2 type  2   force =     0.00822008   -0.00784296   -0.00629630
     atom    3 type  2   force =     0.01557809    0.00944536    0.00578467
     atom    4 type  1   force =     0.04858591   -0.02688686   -0.01586030
     atom    5 type  2   force =    -0.01532261    0.04653651   -0.00108427
     atom    6 type  2   force =    -0.04145313   -0.00490320    0.01380028

     Total force =     0.093423     Total SCF correction =     0.000728

     Entering Dynamics:    iteration =    16
                           time      =   0.0160 pico-seconds


     Andersen thermostat:    6 collisions

ATOMIC_POSITIONS (alat)
C       -0.202827690   0.005967856  -0.000161359
H       -0.163408808  -0.072486032  -0.001870318
H       -0.290199438   0.003018287  -0.000314528
C       -0.148752787   0.097482873   0.000903643
H       -0.191938533   0.169174580   0.001136846
H       -0.062526376   0.100350980  -0.007796074


     kinetic energy (Ekin) =     0.01857631 Ry
     temperature           =   391.06185670 K 
     Ekin + Etot (const)   =   -27.14414736 Ry
     Message from routine dynamics:
     Total linear momentum <> 0

     Linear momentum :   -0.1360738821    0.1696599263    0.0509146901

     Writing output data file x.save
     Check: negative starting charge=   -0.040566
     NEW-OLD atomic charge density approx. for the potential
     Check: negative starting charge=   -0.040520

     negative rho (up, down):  1.391E-02 0.000E+00

     total cpu time spent up to now is       79.0 secs

     per-process dynamical memory:    19.6 Mb

     Self-consistent Calculation

     iteration #  1     ecut=    30.00 Ry     beta=0.45
     Davidson diagonalization with overlap
     ethr =  1.00E-06,  avg # of iterations = 20.0

     negative rho (up, down):  7.213E-03 0.000E+00

     total cpu time spent up to now is       80.3 secs

     total energy              =     -27.16302059 Ry
     Harris-Foulkes estimate   =     -27.16362429 Ry
     estimated scf accuracy    <       0.00166927 Ry

     iteration #  2     ecut=    30.00 Ry     beta=0.45
     Davidson diagonalization with overlap
     ethr =  1.39E-05,  avg # of iterations =  2.0

     negative rho (up, down):  4.631E-03 0.000E+00

     total cpu time spent up to now is       80.8 secs

     total energy              =     -27.16330174 Ry
     Harris-Foulkes estimate   =     -27.16345077 Ry
     estimated scf accuracy    <       0.00046972 Ry

     iteration #  3     ecut=    30.00 Ry     beta=0.45
     Davidson diagonalization with overlap
     ethr =  3.91E-06,  avg # of iterations =  5.0

     negative rho (up, down):  1.045E-03 0.000E+00

     total cpu time spent up to now is       81.6 secs

     total energy              =     -27.16333245 Ry
     Harris-Foulkes estimate   =     -27.16337637 Ry
     estimated scf accuracy    <       0.00005532 Ry

     iteration #  4     ecut=    30.00 Ry     beta=0.45
     Davidson diagonalization with overlap
     ethr =  4.61E-07,  avg # of iterations =  7.0

     total cpu time spent up to now is       82.3 secs

     End of self-consistent calculation

          k = 0.0000 0.0000 0.0000 ( 19321 PWs)   bands (ev):

   -18.8512 -14.2031 -11.1531  -9.8335  -8.2726  -6.4174  -0.8993  -0.4399
     0.2724   0.3784   0.4183   0.6013   0.6644   0.7105   1.2248   1.2312
     1.2910   1.4564   1.4815   1.5425

     the Fermi energy is    -3.4879 ev

!    total energy              =     -27.16333654 Ry
     Harris-Foulkes estimate   =     -27.16333696 Ry
     estimated scf accuracy    <       0.00000293 Ry

     convergence has been achieved in   4 iterations

     Forces acting on atoms (Ry/au):

     atom    1 type  1   force =     0.00839256   -0.01365585   -0.00028698
     atom    2 type  2   force =     0.00008791    0.00860938   -0.00174628
     atom    3 type  2   force =     0.00143266    0.00509130    0.00500780
     atom    4 type  1   force =     0.00873838   -0.06798198   -0.01277552
     atom    5 type  2   force =    -0.02798322    0.06703988    0.00196909
     atom    6 type  2   force =     0.00933171    0.00089727    0.00783190

     Total force =     0.103339     Total SCF correction =     0.001126

     Entering Dynamics:    iteration =    17
                           time      =   0.0170 pico-seconds


     Andersen thermostat:    6 collisions

ATOMIC_POSITIONS (alat)
C       -0.203276264   0.005729549  -0.000130266
H       -0.163439451  -0.072422418  -0.002043248
H       -0.290306624   0.005095963   0.000522456
C       -0.148401911   0.097238847   0.000858730
H       -0.193678311   0.173065498  -0.000124921
H       -0.059484725   0.100065616  -0.007033705


     kinetic energy (Ekin) =     0.02082853 Ry
     temperature           =   438.47481407 K 
     Ekin + Etot (const)   =   -27.14250801 Ry
     Message from routine dynamics:
     Total linear momentum <> 0

     Linear momentum :    0.0393180692    0.0616042974   -0.0077535069

     Writing output data file x.save
     Check: negative starting charge=   -0.040520
     NEW-OLD atomic charge density approx. for the potential
     Check: negative starting charge=   -0.040563

     negative rho (up, down):  1.482E-02 0.000E+00

     total cpu time spent up to now is       84.0 secs

     per-process dynamical memory:    19.6 Mb

     Self-consistent Calculation

     iteration #  1     ecut=    30.00 Ry     beta=0.45
     Davidson diagonalization with overlap
     ethr =  1.00E-06,  avg # of iterations = 12.0

     negative rho (up, down):  7.723E-03 0.000E+00

     total cpu time spent up to now is       85.2 secs

     total energy              =     -27.16444699 Ry
     Harris-Foulkes estimate   =     -27.16651906 Ry
     estimated scf accuracy    <       0.00453386 Ry

     iteration #  2     ecut=    30.00 Ry     beta=0.45
     Davidson diagonalization with overlap
     ethr =  3.78E-05,  avg # of iterations =  2.0

     negative rho (up, down):  5.088E-03 0.000E+00

     total cpu time spent up to now is       85.7 secs

     total energy              =     -27.16535795 Ry
     Harris-Foulkes estimate   =     -27.16581077 Ry
     estimated scf accuracy    <       0.00122768 Ry

     iteration #  3     ecut=    30.00 Ry     beta=0.45
     Davidson diagonalization with overlap
     ethr =  1.02E-05,  avg # of iterations =  3.0

     negative rho (up, down):  1.755E-03 0.000E+00

     total cpu time spent up to now is       86.3 secs

     total energy              =     -27.16552244 Ry
     Harris-Foulkes estimate   =     -27.16556804 Ry
     estimated scf accuracy    <       0.00009089 Ry

     iteration #  4     ecut=    30.00 Ry     beta=0.45
     Davidson diagonalization with overlap
     ethr =  7.57E-07,  avg # of iterations =  8.0

     total cpu time spent up to now is       87.1 secs

     End of self-consistent calculation

          k = 0.0000 0.0000 0.0000 ( 19321 PWs)   bands (ev):

   -18.7752 -14.0537 -11.0636  -9.7390  -8.2256  -6.4115  -0.9191  -0.4759
     0.2385   0.3263   0.3750   0.5743   0.6220   0.6814   1.1781   1.1913
     1.2435   1.4205   1.4556   1.5050

     the Fermi energy is    -3.4970 ev

!    total energy              =     -27.16552455 Ry
     Harris-Foulkes estimate   =     -27.16552960 Ry
     estimated scf accuracy    <       0.00000921 Ry

     convergence has been achieved in   4 iterations

     Forces acting on atoms (Ry/au):

     atom    1 type  1   force =     0.02209812    0.00389244    0.00048610
     atom    2 type  2   force =    -0.00295460    0.00664427   -0.00038220
     atom    3 type  2   force =    -0.00426551    0.00022624    0.00317934
     atom    4 type  1   force =     0.00090674   -0.00292087   -0.01618862
     atom    5 type  2   force =     0.01766456   -0.00832951    0.00311469
     atom    6 type  2   force =    -0.03344931    0.00048743    0.00979069

     Total force =     0.049624     Total SCF correction =     0.000529

     Entering Dynamics:    iteration =    18
                           time      =   0.0180 pico-seconds


     Andersen thermostat:    6 collisions

ATOMIC_POSITIONS (alat)
C       -0.203328885   0.006018138  -0.000221936
H       -0.161981463  -0.072000217  -0.001338978
H       -0.292293464   0.005010658   0.001384736
C       -0.148320953   0.097286657   0.000878011
H       -0.192001731   0.170576224  -0.000295486
H       -0.060970083   0.098209897  -0.007567201


     kinetic energy (Ekin) =     0.01468830 Ry
     temperature           =   309.21286951 K 
     Ekin + Etot (const)   =   -27.15083625 Ry
     Message from routine dynamics:
     Total linear momentum <> 0

     Linear momentum :    0.2064452809   -0.2128374416    0.0623607546

     Writing output data file x.save
     Check: negative starting charge=   -0.040563
     NEW-OLD atomic charge density approx. for the potential
     Check: negative starting charge=   -0.040707

     negative rho (up, down):  1.219E-02 0.000E+00

     total cpu time spent up to now is       88.8 secs

     per-process dynamical memory:    19.6 Mb

     Self-consistent Calculation

     iteration #  1     ecut=    30.00 Ry     beta=0.45
     Davidson diagonalization with overlap
     ethr =  1.00E-06,  avg # of iterations = 12.0

     negative rho (up, down):  6.323E-03 0.000E+00

     total cpu time spent up to now is       89.9 secs

     total energy              =     -27.16398264 Ry
     Harris-Foulkes estimate   =     -27.16528092 Ry
     estimated scf accuracy    <       0.00272596 Ry

     iteration #  2     ecut=    30.00 Ry     beta=0.45
     Davidson diagonalization with overlap
     ethr =  2.27E-05,  avg # of iterations =  2.0

     negative rho (up, down):  4.292E-03 0.000E+00

     total cpu time spent up to now is       90.5 secs

     total energy              =     -27.16457601 Ry
     Harris-Foulkes estimate   =     -27.16493438 Ry
     estimated scf accuracy    <       0.00097034 Ry

     iteration #  3     ecut=    30.00 Ry     beta=0.45
     Davidson diagonalization with overlap
     ethr =  8.09E-06,  avg # of iterations =  3.0

     negative rho (up, down):  9.246E-04 0.000E+00

     total cpu time spent up to now is       91.0 secs

     total energy              =     -27.16468309 Ry
     Harris-Foulkes estimate   =     -27.16472345 Ry
     estimated scf accuracy    <       0.00005568 Ry

     iteration #  4     ecut=    30.00 Ry     beta=0.45
     Davidson diagonalization with overlap
     ethr =  4.64E-07,  avg # of iterations =  7.0

     total cpu time spent up to now is       91.8 secs

     End of self-consistent calculation

          k = 0.0000 0.0000 0.0000 ( 19321 PWs)   bands (ev):

   -18.8070 -14.0624 -11.1404  -9.7010  -8.2644  -6.4128  -0.9034  -0.4479
     0.2650   0.3578   0.4080   0.6052   0.6658   0.7181   1.2213   1.2295
     1.2698   1.4523   1.4849   1.5431

     the Fermi energy is    -3.4764 ev

!    total energy              =     -27.16468890 Ry
     Harris-Foulkes estimate   =     -27.16468906 Ry
     estimated scf accuracy    <       0.00000350 Ry

     convergence has been achieved in   4 iterations

     Forces acting on atoms (Ry/au):

     atom    1 type  1   force =    -0.00373859   -0.00864947    0.00397493
     atom    2 type  2   force =    -0.01117627    0.01266593   -0.00140348
     atom    3 type  2   force =     0.02812509   -0.00045035    0.00175533
     atom    4 type  1   force =     0.00376648   -0.04575572   -0.01551603
     atom    5 type  2   force =    -0.00769047    0.03832158    0.00281610
     atom    6 type  2   force =    -0.00928624    0.00386803    0.00837315

     Total force =     0.072399     Total SCF correction =     0.001441

     Entering Dynamics:    iteration =    19
                           time      =   0.0190 pico-seconds


     Andersen thermostat:    6 collisions

ATOMIC_POSITIONS (alat)
C       -0.203748464   0.006665814  -0.000531612
H       -0.161437470  -0.072569701  -0.002348942
H       -0.290289420   0.003806466   0.002772145
C       -0.148153970   0.096857084   0.001127709
H       -0.190582538   0.168848792  -0.000222062
H       -0.061927705   0.099112387  -0.007303444


     kinetic energy (Ekin) =     0.01767529 Ry
     temperature           =   372.09393423 K 
     Ekin + Etot (const)   =   -27.14701361 Ry
     Message from routine dynamics:
     Total linear momentum <> 0

     Linear momentum :    0.0945921798    0.0817670240   -0.1425875008

     Writing output data file x.save
     Check: negative starting charge=   -0.040707
     NEW-OLD atomic charge density approx. for the potential
     Check: negative starting charge=   -0.040557

     negative rho (up, down):  1.035E-02 0.000E+00

     total cpu time spent up to now is       93.5 secs

     per-process dynamical memory:    19.6 Mb

     Self-consistent Calculation

     iteration #  1     ecut=    30.00 Ry     beta=0.45
     Davidson diagonalization with overlap
     ethr =  1.00E-06,  avg # of iterations =  9.0

     negative rho (up, down):  5.356E-03 0.000E+00

     total cpu time spent up to now is       94.6 secs

     total energy              =     -27.16151388 Ry
     Harris-Foulkes estimate   =     -27.16187371 Ry
     estimated scf accuracy    <       0.00102725 Ry

     iteration #  2     ecut=    30.00 Ry     beta=0.45
     Davidson diagonalization with overlap
     ethr =  8.56E-06,  avg # of iterations =  3.0

     negative rho (up, down):  2.831E-03 0.000E+00

     total cpu time spent up to now is       95.1 secs

     total energy              =     -27.16161051 Ry
     Harris-Foulkes estimate   =     -27.16167685 Ry
     estimated scf accuracy    <       0.00014493 Ry

     iteration #  3     ecut=    30.00 Ry     beta=0.45
     Davidson diagonalization with overlap
     ethr =  1.21E-06,  avg # of iterations =  4.0

     negative rho (up, down):  9.842E-04 0.000E+00

     total cpu time spent up to now is       95.8 secs

     total energy              =     -27.16160826 Ry
     Harris-Foulkes estimate   =     -27.16163093 Ry
     estimated scf accuracy    <       0.00003339 Ry

     iteration #  4     ecut=    30.00 Ry     beta=0.45
     Davidson diagonalization with overlap
     ethr =  2.78E-07,  avg # of iterations =  5.0

     total cpu time spent up to now is       96.4 secs

     End of self-consistent calculation

          k = 0.0000 0.0000 0.0000 ( 19321 PWs)   bands (ev):

   -18.8764 -14.1535 -11.1760  -9.8125  -8.2377  -6.4427  -0.8730  -0.4409
     0.2806   0.3636   0.4213   0.6041   0.6665   0.7159   1.2213   1.2383
     1.2867   1.4522   1.4842   1.5461

     the Fermi energy is    -3.4915 ev

!    total energy              =     -27.16161241 Ry
     Harris-Foulkes estimate   =     -27.16161131 Ry
     estimated scf accuracy    <       0.00000327 Ry

     convergence has been achieved in   4 iterations

     Forces acting on atoms (Ry/au):

     atom    1 type  1   force =     0.04198363   -0.04946263    0.00450044
     atom    2 type  2   force =    -0.02121981    0.03209770   -0.00054535
     atom    3 type  2   force =    -0.01028847    0.00339033    0.00077631
     atom    4 type  1   force =     0.00804987   -0.05692121   -0.01471443
     atom    5 type  2   force =    -0.02808772    0.07168391    0.00409391
     atom    6 type  2   force =     0.00956251   -0.00078810    0.00588912

     Total force =     0.124180     Total SCF correction =     0.000574

     Entering Dynamics:    iteration =    20
                           time      =   0.0200 pico-seconds


     Andersen thermostat:    6 collisions

ATOMIC_POSITIONS (alat)
C       -0.203382500   0.007131472  -0.000554452
H       -0.162565695  -0.071644179  -0.003383577
H       -0.291908436   0.002995626   0.003902507
[...]

     negative rho (up, down):  2.943E-03 0.000E+00

     total cpu time spent up to now is      220.1 secs

     total energy              =     -27.16495249 Ry
     Harris-Foulkes estimate   =     -27.16499579 Ry
     estimated scf accuracy    <       0.00011052 Ry

     iteration #  3     ecut=    30.00 Ry     beta=0.45
     Davidson diagonalization with overlap
     ethr =  9.21E-07,  avg # of iterations =  8.0

     negative rho (up, down):  1.273E-03 0.000E+00

     total cpu time spent up to now is      220.8 secs

     total energy              =     -27.16494850 Ry
     Harris-Foulkes estimate   =     -27.16497077 Ry
     estimated scf accuracy    <       0.00002729 Ry

     iteration #  4     ecut=    30.00 Ry     beta=0.45
     Davidson diagonalization with overlap
     ethr =  2.27E-07,  avg # of iterations =  4.0

     total cpu time spent up to now is      221.3 secs

     End of self-consistent calculation

          k = 0.0000 0.0000 0.0000 ( 19321 PWs)   bands (ev):

   -18.8154 -14.2006 -11.0205  -9.9210  -8.1784  -6.4323  -0.9190  -0.4527
     0.2422   0.3657   0.4076   0.5910   0.6497   0.6989   1.2060   1.2075
     1.2822   1.4474   1.4724   1.5290

     the Fermi energy is    -3.4891 ev

!    total energy              =     -27.16494878 Ry
     Harris-Foulkes estimate   =     -27.16495132 Ry
     estimated scf accuracy    <       0.00000440 Ry

     convergence has been achieved in   4 iterations

     Forces acting on atoms (Ry/au):

     atom    1 type  1   force =     0.01443544   -0.00921142    0.00323281
     atom    2 type  2   force =     0.00935850   -0.00416106    0.00268610
     atom    3 type  2   force =    -0.00706655    0.01440175   -0.00071243
     atom    4 type  1   force =     0.01009198   -0.02182056   -0.01784305
     atom    5 type  2   force =    -0.00568425    0.02356281    0.00693447
     atom    6 type  2   force =    -0.02113512   -0.00277153    0.00570211

     Total force =     0.051889     Total SCF correction =     0.000979

     Entering Dynamics:    iteration =    47
                           time      =   0.0470 pico-seconds


     Andersen thermostat:    6 collisions

ATOMIC_POSITIONS (alat)
C       -0.204364050   0.006170116  -0.001224029
H       -0.164184985  -0.071945591  -0.000125613
H       -0.291335766   0.001780050  -0.005757344
C       -0.147516707   0.097118373   0.001840240
H       -0.187583797   0.173032317  -0.004345096
H       -0.061390859   0.099124070   0.002886097


     kinetic energy (Ekin) =     0.02239721 Ry
     temperature           =   471.49803745 K 
     Ekin + Etot (const)   =   -27.14255157 Ry
     Message from routine dynamics:
     Total linear momentum <> 0

     Linear momentum :   -0.0377219438    0.2409478762    0.1808559933

     Writing output data file x.save
     Check: negative starting charge=   -0.040468
     NEW-OLD atomic charge density approx. for the potential
     Check: negative starting charge=   -0.040350

     negative rho (up, down):  1.427E-02 0.000E+00

     total cpu time spent up to now is      223.0 secs

     per-process dynamical memory:    19.6 Mb

     Self-consistent Calculation

     iteration #  1     ecut=    30.00 Ry     beta=0.45
     Davidson diagonalization with overlap
     ethr =  1.00E-06,  avg # of iterations = 13.0

     negative rho (up, down):  7.402E-03 0.000E+00

     total cpu time spent up to now is      224.2 secs

     total energy              =     -27.16537944 Ry
     Harris-Foulkes estimate   =     -27.16571613 Ry
     estimated scf accuracy    <       0.00121157 Ry

     iteration #  2     ecut=    30.00 Ry     beta=0.45
     Davidson diagonalization with overlap
     ethr =  1.01E-05,  avg # of iterations =  3.0

     negative rho (up, down):  4.752E-03 0.000E+00

     total cpu time spent up to now is      224.7 secs

     total energy              =     -27.16558831 Ry
     Harris-Foulkes estimate   =     -27.16567309 Ry
     estimated scf accuracy    <       0.00037656 Ry

     iteration #  3     ecut=    30.00 Ry     beta=0.45
     Davidson diagonalization with overlap
     ethr =  3.14E-06,  avg # of iterations =  5.0

     negative rho (up, down):  8.442E-04 0.000E+00

     total cpu time spent up to now is      225.3 secs

     total energy              =     -27.16560413 Ry
     Harris-Foulkes estimate   =     -27.16564372 Ry
     estimated scf accuracy    <       0.00005373 Ry

     iteration #  4     ecut=    30.00 Ry     beta=0.45
     Davidson diagonalization with overlap
     ethr =  4.48E-07,  avg # of iterations =  6.0

     total cpu time spent up to now is      226.1 secs

     End of self-consistent calculation

          k = 0.0000 0.0000 0.0000 ( 19321 PWs)   bands (ev):

   -18.7556 -14.2499 -11.0298  -9.8891  -8.2451  -6.3829  -0.9670  -0.4378
     0.2572   0.3839   0.4266   0.6078   0.6735   0.7209   1.2226   1.2397
     1.2958   1.4622   1.4925   1.5525

     the Fermi energy is    -3.4565 ev

!    total energy              =     -27.16560806 Ry
     Harris-Foulkes estimate   =     -27.16560822 Ry
     estimated scf accuracy    <       0.00000235 Ry

     convergence has been achieved in   4 iterations

     Forces acting on atoms (Ry/au):

     atom    1 type  1   force =     0.03406283    0.00615727    0.00079663
     atom    2 type  2   force =    -0.00144582    0.00710803    0.00206235
     atom    3 type  2   force =    -0.00139111    0.01092083    0.00053608
     atom    4 type  1   force =    -0.04114439   -0.04152063   -0.01095706
     atom    5 type  2   force =    -0.00937301    0.02259073    0.00381549
     atom    6 type  2   force =     0.01929149   -0.00525623    0.00374651

     Total force =     0.077076     Total SCF correction =     0.001194

     Entering Dynamics:    iteration =    48
                           time      =   0.0480 pico-seconds


     Andersen thermostat:    6 collisions

ATOMIC_POSITIONS (alat)
C       -0.204181900   0.006636255  -0.001001069
H       -0.164979197  -0.071453535   0.000262978
H       -0.288948272   0.001172529  -0.005524760
C       -0.147718426   0.096585999   0.001623264
H       -0.187476402   0.171733284  -0.006797088
H       -0.062858385   0.101327740   0.004645623


     kinetic energy (Ekin) =     0.02166988 Ry
     temperature           =   456.18647778 K 
     Ekin + Etot (const)   =   -27.14393818 Ry
     Message from routine dynamics:
     Total linear momentum <> 0

     Linear momentum :   -0.0050896415    0.1276084284    0.1916677982

     Writing output data file x.save
     Check: negative starting charge=   -0.040350
     NEW-OLD atomic charge density approx. for the potential
     Check: negative starting charge=   -0.040128

     negative rho (up, down):  1.319E-02 0.000E+00

     total cpu time spent up to now is      227.7 secs

     per-process dynamical memory:    19.6 Mb

     Self-consistent Calculation

     iteration #  1     ecut=    30.00 Ry     beta=0.45
     Davidson diagonalization with overlap
     ethr =  1.00E-06,  avg # of iterations = 13.0

     negative rho (up, down):  6.847E-03 0.000E+00

     total cpu time spent up to now is      228.8 secs

     total energy              =     -27.16242289 Ry
     Harris-Foulkes estimate   =     -27.16285328 Ry
     estimated scf accuracy    <       0.00133347 Ry

     iteration #  2     ecut=    30.00 Ry     beta=0.45
     Davidson diagonalization with overlap
     ethr =  1.11E-05,  avg # of iterations =  2.0

     negative rho (up, down):  3.425E-03 0.000E+00

     total cpu time spent up to now is      229.3 secs

     total energy              =     -27.16259611 Ry
     Harris-Foulkes estimate   =     -27.16262565 Ry
     estimated scf accuracy    <       0.00012398 Ry

     iteration #  3     ecut=    30.00 Ry     beta=0.45
     Davidson diagonalization with overlap
     ethr =  1.03E-06,  avg # of iterations =  7.0

     negative rho (up, down):  1.099E-03 0.000E+00

     total cpu time spent up to now is      230.1 secs

     total energy              =     -27.16258362 Ry
     Harris-Foulkes estimate   =     -27.16260788 Ry
     estimated scf accuracy    <       0.00003069 Ry

     iteration #  4     ecut=    30.00 Ry     beta=0.45
     Davidson diagonalization with overlap
     ethr =  2.56E-07,  avg # of iterations =  7.0

     total cpu time spent up to now is      230.8 secs

     End of self-consistent calculation

          k = 0.0000 0.0000 0.0000 ( 19321 PWs)   bands (ev):

   -18.8523 -14.3569 -11.0573 -10.0496  -8.2045  -6.4231  -0.9110  -0.4354
     0.2697   0.3933   0.4291   0.6004   0.6629   0.7094   1.2185   1.2435
     1.3054   1.4585   1.4804   1.5479

     the Fermi energy is    -3.4841 ev

!    total energy              =     -27.16258550 Ry
     Harris-Foulkes estimate   =     -27.16258645 Ry
     estimated scf accuracy    <       0.00000397 Ry

     convergence has been achieved in   4 iterations

     Forces acting on atoms (Ry/au):

     atom    1 type  1   force =     0.05700004   -0.01403923    0.00225278
     atom    2 type  2   force =     0.00551263    0.00025730    0.00451289
     atom    3 type  2   force =    -0.04232000    0.01263931   -0.00349687
     atom    4 type  1   force =    -0.04375700   -0.02327176   -0.01061490
     atom    5 type  2   force =    -0.01806975    0.03412978    0.00388118
     atom    6 type  2   force =     0.04163408   -0.00971540    0.00346493

     Total force =     0.106678     Total SCF correction =     0.001374

     Entering Dynamics:    iteration =    49
                           time      =   0.0490 pico-seconds


     Andersen thermostat:    6 collisions

ATOMIC_POSITIONS (alat)
C       -0.204338234   0.006708883  -0.000573893
H       -0.165336120  -0.073499702   0.000560209
H       -0.289836961   0.002253324  -0.005895564
C       -0.147653322   0.096460167   0.001257218
H       -0.188034592   0.172184675  -0.007812782
H       -0.059967605   0.102475632   0.005006537


     kinetic energy (Ekin) =     0.01220771 Ry
     temperature           =   256.99236069 K 
     Ekin + Etot (const)   =   -27.15037779 Ry
     Message from routine dynamics:
     Total linear momentum <> 0

     Linear momentum :   -0.0152541395   -0.1198630224   -0.0114022316

     Writing output data file x.save
     Check: negative starting charge=   -0.040128
     NEW-OLD atomic charge density approx. for the potential
     Check: negative starting charge=   -0.040268

     negative rho (up, down):  1.059E-02 0.000E+00

     total cpu time spent up to now is      232.5 secs

     per-process dynamical memory:    19.6 Mb

     Self-consistent Calculation

     iteration #  1     ecut=    30.00 Ry     beta=0.45
     Davidson diagonalization with overlap
     ethr =  1.00E-06,  avg # of iterations = 13.0

     negative rho (up, down):  5.497E-03 0.000E+00

     total cpu time spent up to now is      233.7 secs

     total energy              =     -27.16377119 Ry
     Harris-Foulkes estimate   =     -27.16429526 Ry
     estimated scf accuracy    <       0.00136793 Ry

     iteration #  2     ecut=    30.00 Ry     beta=0.45
     Davidson diagonalization with overlap
     ethr =  1.14E-05,  avg # of iterations =  2.0

     negative rho (up, down):  2.856E-03 0.000E+00

     total cpu time spent up to now is      234.2 secs

     total energy              =     -27.16392196 Ry
     Harris-Foulkes estimate   =     -27.16398656 Ry
     estimated scf accuracy    <       0.00014724 Ry

     iteration #  3     ecut=    30.00 Ry     beta=0.45
     Davidson diagonalization with overlap
     ethr =  1.23E-06,  avg # of iterations =  8.0

     negative rho (up, down):  1.171E-03 0.000E+00

     total cpu time spent up to now is      235.0 secs

     total energy              =     -27.16392123 Ry
     Harris-Foulkes estimate   =     -27.16394439 Ry
     estimated scf accuracy    <       0.00003589 Ry

     iteration #  4     ecut=    30.00 Ry     beta=0.45
     Davidson diagonalization with overlap
     ethr =  2.99E-07,  avg # of iterations =  3.0

     total cpu time spent up to now is      235.5 secs

     End of self-consistent calculation

          k = 0.0000 0.0000 0.0000 ( 19321 PWs)   bands (ev):

   -18.8136 -14.2233 -10.9577 -10.0181  -8.1217  -6.4348  -0.9100  -0.4506
     0.2333   0.3664   0.4159   0.5952   0.6513   0.7046   1.2017   1.2195
     1.2852   1.4555   1.4747   1.5375

     the Fermi energy is    -3.4822 ev

!    total energy              =     -27.16392289 Ry
     Harris-Foulkes estimate   =     -27.16392498 Ry
     estimated scf accuracy    <       0.00000484 Ry

     convergence has been achieved in   4 iterations

     Forces acting on atoms (Ry/au):

     atom    1 type  1   force =     0.05517868   -0.04045827   -0.00018994
     atom    2 type  2   force =    -0.00708578    0.02693619    0.00512042
     atom    3 type  2   force =    -0.02797457    0.01218593   -0.00248948
     atom    4 type  1   force =     0.00148843   -0.00487786   -0.00857269
     atom    5 type  2   force =    -0.00975481    0.02008916    0.00521265
     atom    6 type  2   force =    -0.01185196   -0.01387515    0.00091904

     Total force =     0.085907     Total SCF correction =     0.000982

     Entering Dynamics:    iteration =    50
                           time      =   0.0500 pico-seconds


     Andersen thermostat:    6 collisions

ATOMIC_POSITIONS (alat)
C       -0.204119275   0.006963577  -0.000724395
H       -0.167422952  -0.075918677  -0.000150477
H       -0.288754324   0.003254396  -0.003335074
C       -0.147623330   0.096031303   0.001139414
H       -0.190524606   0.173419745  -0.007909397
H       -0.059439576   0.104733638   0.006450129


     kinetic energy (Ekin) =     0.02547711 Ry
     temperature           =   536.33511064 K 
     Ekin + Etot (const)   =   -27.13844578 Ry
     Message from routine dynamics:
     Total linear momentum <> 0

     Linear momentum :   -0.1691054390    0.0472113289   -0.1114985702
     Check: negative starting charge=   -0.040268
     NEW-OLD atomic charge density approx. for the potential
     Check: negative starting charge=   -0.040282

     negative rho (up, down):  1.553E-02 0.000E+00

     total cpu time spent up to now is      237.0 secs

     per-process dynamical memory:    19.6 Mb

     Self-consistent Calculation

     iteration #  1     ecut=    30.00 Ry     beta=0.45
     Davidson diagonalization with overlap
     ethr =  1.00E-06,  avg # of iterations = 11.0

     negative rho (up, down):  8.080E-03 0.000E+00

     total cpu time spent up to now is      238.1 secs

     total energy              =     -27.15944025 Ry
     Harris-Foulkes estimate   =     -27.15972384 Ry
     estimated scf accuracy    <       0.00123759 Ry

     iteration #  2     ecut=    30.00 Ry     beta=0.45
     Davidson diagonalization with overlap
     ethr =  1.03E-05,  avg # of iterations =  3.0

     negative rho (up, down):  4.904E-03 0.000E+00

     total cpu time spent up to now is      238.7 secs

     total energy              =     -27.15961751 Ry
     Harris-Foulkes estimate   =     -27.15968067 Ry
     estimated scf accuracy    <       0.00032033 Ry

     iteration #  3     ecut=    30.00 Ry     beta=0.45
     Davidson diagonalization with overlap
     ethr =  2.67E-06,  avg # of iterations =  6.0

     negative rho (up, down):  9.275E-04 0.000E+00

     total cpu time spent up to now is      239.4 secs

     total energy              =     -27.15961969 Ry
     Harris-Foulkes estimate   =     -27.15966280 Ry
     estimated scf accuracy    <       0.00005925 Ry

     iteration #  4     ecut=    30.00 Ry     beta=0.45
     Davidson diagonalization with overlap
     ethr =  4.94E-07,  avg # of iterations =  7.0

     total cpu time spent up to now is      240.1 secs

     End of self-consistent calculation

          k = 0.0000 0.0000 0.0000 ( 19321 PWs)   bands (ev):

   -18.8351 -14.1607 -10.8684 -10.0894  -8.0158  -6.4621  -0.8764  -0.4478
     0.2199   0.3548   0.4207   0.6009   0.6645   0.7156   1.1899   1.2268
     1.2886   1.4614   1.4833   1.5479

     the Fermi energy is    -3.4798 ev

!    total energy              =     -27.15962377 Ry
     Harris-Foulkes estimate   =     -27.15962408 Ry
     estimated scf accuracy    <       0.00000232 Ry

     convergence has been achieved in   4 iterations

     Forces acting on atoms (Ry/au):

     atom    1 type  1   force =     0.06746387   -0.07614646    0.00218236
     atom    2 type  2   force =    -0.00870609    0.04763900    0.00572588
     atom    3 type  2   force =    -0.04894834    0.01291310   -0.00592295
     atom    4 type  1   force =     0.00259157    0.05079871   -0.00895367
     atom    5 type  2   force =     0.01204079   -0.01762097    0.01029238
     atom    6 type  2   force =    -0.02444180   -0.01758338   -0.00332400

     Total force =     0.139559     Total SCF correction =     0.001001

     The maximum number of steps has been reached.

     End of molecular dynamics calculation

     diffusion coefficients :
     atom     1   D =       0.00000031 cm^2/s
     atom     2   D =       0.00000641 cm^2/s
     atom     3   D =       0.00000114 cm^2/s
     atom     4   D =       0.00000039 cm^2/s
     atom     5   D =       0.00000392 cm^2/s
     atom     6   D =       0.00000701 cm^2/s

     < D > =       0.00000319 cm^2/s

     Entering Dynamics:    iteration =    51
                           time      =   0.0510 pico-seconds


     Andersen thermostat:    6 collisions

ATOMIC_POSITIONS (alat)
C       -0.203853484   0.007193241  -0.001074707
H       -0.167130078  -0.074839697   0.001317119
H       -0.288186211   0.004992633  -0.004623505
C       -0.148068060   0.095705114   0.001215410
H       -0.190475626   0.172728309  -0.006367361
H       -0.058217536   0.103757926   0.007997309


     kinetic energy (Ekin) =     0.01434173 Ry
     temperature           =   301.91699547 K 
     Ekin + Etot (const)   =   -27.14528204 Ry
     Message from routine dynamics:
     Total linear momentum <> 0

     Linear momentum :    0.0470863900    0.0496160691    0.1627759851

     Writing output data file x.save

     init_run     :      1.01s CPU      1.36s WALL (       1 calls)
     electrons    :    117.97s CPU    160.19s WALL (      51 calls)
     update_pot   :     41.95s CPU     48.82s WALL (      50 calls)
     forces       :     18.35s CPU     19.18s WALL (      51 calls)

     Called by init_run:
     wfcinit      :      0.10s CPU      0.19s WALL (       1 calls)
     potinit      :      0.49s CPU      0.55s WALL (       1 calls)

     Called by electrons:
     c_bands      :     80.56s CPU    103.81s WALL (     202 calls)
     sum_band     :     11.09s CPU     15.48s WALL (     202 calls)
     v_of_rho     :     28.43s CPU     37.68s WALL (     253 calls)
     mix_rho      :      1.92s CPU      2.64s WALL (     202 calls)

     Called by c_bands:
     init_us_2    :      0.29s CPU      0.34s WALL (     405 calls)
     regterg      :     80.18s CPU    103.36s WALL (     202 calls)

     Called by *egterg:
     h_psi        :     64.04s CPU     85.24s WALL (    1522 calls)
     g_psi        :      0.28s CPU      0.28s WALL (    1319 calls)
     rdiaghg      :      2.27s CPU      2.38s WALL (    1471 calls)

     Called by h_psi:
     add_vuspsi   :      0.13s CPU      0.36s WALL (    1522 calls)

     General routines
     calbec       :      1.52s CPU      1.70s WALL (    1726 calls)
     fft          :     18.43s CPU     31.00s WALL (    2884 calls)
     fftw         :     64.49s CPU     87.05s WALL (   18854 calls)
     davcio       :      0.00s CPU      0.07s WALL (      50 calls)

     Parallel routines
     fft_scatter  :     40.18s CPU     72.16s WALL (   21738 calls)

     PWSCF        :  3m 3.48s CPU     4m 0.91s WALL


   This run was terminated on:  22:59:53  28Jun2014            

=------------------------------------------------------------------------------=
   JOB DONE.
=------------------------------------------------------------------------------=
